MODEL 1
REMARK VINA RESULT:    -2.174      0.000      0.000
REMARK INTER + INTRA:          -2.174
REMARK INTER:                  -2.174
REMARK INTRA:                   0.000
REMARK UNBOUND:                 0.000
REMARK SMILES CC
REMARK SMILES IDX 1 1 2 2
REMARK H PARENT
ROOT
ATOM      1  C   UNL     1      11.580   6.928  -3.976  1.00  0.00    +0.000 C 
ATOM      2  C   UNL     1      12.192   6.793  -2.600  1.00  0.00    +0.000 C 
ENDROOT
TORSDOF 0
ENDMDL
MODEL 2
REMARK VINA RESULT:    -2.161      0.104      1.514
REMARK INTER + INTRA:          -2.161
REMARK INTER:                  -2.161
REMARK INTRA:                   0.000
REMARK UNBOUND:                 0.000
REMARK SMILES CC
REMARK SMILES IDX 1 1 2 2
REMARK H PARENT
ROOT
ATOM      1  C   UNL     1      12.208   6.783  -2.711  1.00  0.00    +0.000 C 
ATOM      2  C   UNL     1      11.521   6.922  -4.050  1.00  0.00    +0.000 C 
ENDROOT
TORSDOF 0
ENDMDL
MODEL 3
REMARK VINA RESULT:    -2.033      1.063      1.661
REMARK INTER + INTRA:          -2.033
REMARK INTER:                  -2.033
REMARK INTRA:                   0.000
REMARK UNBOUND:                 0.000
REMARK SMILES CC
REMARK SMILES IDX 1 1 2 2
REMARK H PARENT
ROOT
ATOM      1  C   UNL     1      12.401   8.225  -2.200  1.00  0.00    +0.000 C 
ATOM      2  C   UNL     1      12.168   6.809  -2.676  1.00  0.00    +0.000 C 
ENDROOT
TORSDOF 0
ENDMDL
MODEL 4
REMARK VINA RESULT:    -2.020      0.361      1.531
REMARK INTER + INTRA:          -2.020
REMARK INTER:                  -2.020
REMARK INTRA:                   0.000
REMARK UNBOUND:                 0.000
REMARK SMILES CC
REMARK SMILES IDX 1 1 2 2
REMARK H PARENT
ROOT
ATOM      1  C   UNL     1      12.155   6.867  -2.929  1.00  0.00    +0.000 C 
ATOM      2  C   UNL     1      11.233   6.867  -4.127  1.00  0.00    +0.000 C 
ENDROOT
TORSDOF 0
ENDMDL
MODEL 5
REMARK VINA RESULT:    -1.777      2.360      3.295
REMARK INTER + INTRA:          -1.777
REMARK INTER:                  -1.777
REMARK INTRA:                   0.000
REMARK UNBOUND:                 0.000
REMARK SMILES CC
REMARK SMILES IDX 1 1 2 2
REMARK H PARENT
ROOT
ATOM      1  C   UNL     1      11.080   7.043  -5.366  1.00  0.00    +0.000 C 
ATOM      2  C   UNL     1      11.105   7.010  -6.877  1.00  0.00    +0.000 C 
ENDROOT
TORSDOF 0
ENDMDL
MODEL 6
REMARK VINA RESULT:    -1.581     11.736     11.995
REMARK INTER + INTRA:          -1.581
REMARK INTER:                  -1.581
REMARK INTRA:                   0.000
REMARK UNBOUND:                 0.000
REMARK SMILES CC
REMARK SMILES IDX 1 1 2 2
REMARK H PARENT
ROOT
ATOM      1  C   UNL     1       5.318   2.507 -12.630  1.00  0.00    +0.000 C 
ATOM      2  C   UNL     1       5.295   4.016 -12.543  1.00  0.00    +0.000 C 
ENDROOT
TORSDOF 0
ENDMDL
MODEL 7
REMARK VINA RESULT:    -1.476      5.315      5.925
REMARK INTER + INTRA:          -1.476
REMARK INTER:                  -1.476
REMARK INTRA:                   0.000
REMARK UNBOUND:                 0.000
REMARK SMILES CC
REMARK SMILES IDX 1 1 2 2
REMARK H PARENT
ROOT
ATOM      1  C   UNL     1      12.225   8.197  -8.365  1.00  0.00    +0.000 C 
ATOM      2  C   UNL     1      11.182   8.921  -9.187  1.00  0.00    +0.000 C 
ENDROOT
TORSDOF 0
ENDMDL
MODEL 8
REMARK VINA RESULT:    -1.416      4.455      4.955
REMARK INTER + INTRA:          -1.416
REMARK INTER:                  -1.416
REMARK INTRA:                   0.000
REMARK UNBOUND:                 0.000
REMARK SMILES CC
REMARK SMILES IDX 1 1 2 2
REMARK H PARENT
ROOT
ATOM      1  C   UNL     1      11.931   9.041  -7.099  1.00  0.00    +0.000 C 
ATOM      2  C   UNL     1      12.229   8.207  -8.324  1.00  0.00    +0.000 C 
ENDROOT
TORSDOF 0
ENDMDL
MODEL 9
REMARK VINA RESULT:    -1.325      5.859      5.859
REMARK INTER + INTRA:          -1.325
REMARK INTER:                  -1.325
REMARK INTRA:                   0.000
REMARK UNBOUND:                 0.000
REMARK SMILES CC
REMARK SMILES IDX 1 1 2 2
REMARK H PARENT
ROOT
ATOM      1  C   UNL     1       6.734   4.130  -1.553  1.00  0.00    +0.000 C 
ATOM      2  C   UNL     1       7.363   4.931  -0.436  1.00  0.00    +0.000 C 
ENDROOT
TORSDOF 0
ENDMDL
