MODEL 1
REMARK VINA RESULT:    -8.880      0.000      0.000
REMARK INTER + INTRA:         -12.657
REMARK INTER:                 -12.254
REMARK INTRA:                  -0.403
REMARK UNBOUND:                -0.403
REMARK SMILES OCCN1CCN(CCCN2c3ccccc3Sc3ccc(Cl)cc32)CC1
REMARK SMILES IDX 4 1 5 2 6 3 7 4 26 5 27 6 3 7 2 8 1 9 8 11 9 12 10 13 11 14
REMARK SMILES IDX 12 15 25 16 13 17 17 18 24 19 19 20 14 21 16 22 18 23 22 24
REMARK SMILES IDX 20 25 15 26 21 27 23 28
REMARK H PARENT 1 10
ROOT
ATOM      1  N   UNL     1      11.186   8.411  -7.453  1.00  0.00    -0.299 NA
ATOM      2  C   UNL     1      11.211   9.048  -8.787  1.00  0.00    +0.100 C 
ATOM      3  C   UNL     1      11.572   8.071  -9.924  1.00  0.00    +0.100 C 
ATOM      4  N   UNL     1      10.607   6.962 -10.089  1.00  0.00    -0.301 NA
ATOM      5  C   UNL     1       9.975   6.617  -8.793  1.00  0.00    +0.100 C 
ATOM      6  C   UNL     1      10.833   6.976  -7.560  1.00  0.00    +0.100 C 
ENDROOT
BRANCH   1   7
ATOM      7  C   UNL     1      10.295   9.166  -6.549  1.00  0.00    +0.112 C 
BRANCH   7   8
ATOM      8  C   UNL     1      11.042  10.284  -5.801  1.00  0.00    +0.171 C 
BRANCH   8   9
ATOM      9  O   UNL     1      10.567  10.370  -4.457  1.00  0.00    -0.395 OA
ATOM     10  H   UNL     1       9.592  10.360  -4.537  1.00  0.00    +0.210 HD
ENDBRANCH   8   9
ENDBRANCH   7   8
ENDBRANCH   1   7
BRANCH   4  11
ATOM     11  C   UNL     1       9.596   7.260 -11.112  1.00  0.00    +0.086 C 
BRANCH  11  12
ATOM     12  C   UNL     1       9.874   6.572 -12.454  1.00  0.00    +0.037 C 
BRANCH  12  13
ATOM     13  C   UNL     1       9.749   5.043 -12.352  1.00  0.00    +0.124 C 
BRANCH  13  14
ATOM     14  N   UNL     1       9.116   4.456 -13.568  1.00  0.00    -0.340 N 
ATOM     15  C   UNL     1       7.806   3.944 -13.351  1.00  0.00    +0.055 A 
ATOM     16  C   UNL     1      10.045   3.896 -14.488  1.00  0.00    +0.057 A 
ATOM     17  C   UNL     1       6.819   4.756 -12.750  1.00  0.00    +0.027 A 
ATOM     18  C   UNL     1       7.436   2.643 -13.746  1.00  0.00    +0.036 A 
ATOM     19  C   UNL     1      11.121   4.672 -14.965  1.00  0.00    +0.048 A 
ATOM     20  C   UNL     1       9.898   2.592 -15.005  1.00  0.00    +0.036 A 
ATOM     21  C   UNL     1       5.526   4.283 -12.517  1.00  0.00    +0.002 A 
ATOM     22  C   UNL     1       6.136   2.171 -13.498  1.00  0.00    +0.017 A 
ATOM     23  S   UNL     1       8.574   1.506 -14.519  1.00  0.00    -0.086 SA
ATOM     24  C   UNL     1      12.046   4.149 -15.876  1.00  0.00    +0.043 A 
ATOM     25  C   UNL     1      10.837   2.073 -15.921  1.00  0.00    +0.019 A 
ATOM     26  C   UNL     1       5.184   2.989 -12.888  1.00  0.00    +0.001 A 
ATOM     27  C   UNL     1      11.911   2.850 -16.352  1.00  0.00    +0.022 A 
ATOM     28 Cl   UNL     1      13.356   5.128 -16.416  1.00  0.00    -0.084 Cl
ENDBRANCH  13  14
ENDBRANCH  12  13
ENDBRANCH  11  12
ENDBRANCH   4  11
TORSDOF 7
ENDMDL
MODEL 2
REMARK VINA RESULT:    -8.481      1.606      2.295
REMARK INTER + INTRA:         -12.106
REMARK INTER:                 -11.552
REMARK INTRA:                  -0.554
REMARK UNBOUND:                -0.403
REMARK SMILES OCCN1CCN(CCCN2c3ccccc3Sc3ccc(Cl)cc32)CC1
REMARK SMILES IDX 4 1 5 2 6 3 7 4 26 5 27 6 3 7 2 8 1 9 8 11 9 12 10 13 11 14
REMARK SMILES IDX 12 15 25 16 13 17 17 18 24 19 19 20 14 21 16 22 18 23 22 24
REMARK SMILES IDX 20 25 15 26 21 27 23 28
REMARK H PARENT 1 10
ROOT
ATOM      1  N   UNL     1      10.382   7.708  -9.363  1.00  0.00    -0.299 NA
ATOM      2  C   UNL     1       9.652   6.813 -10.285  1.00  0.00    +0.100 C 
ATOM      3  C   UNL     1       9.756   7.243 -11.763  1.00  0.00    +0.100 C 
ATOM      4  N   UNL     1      11.137   7.233 -12.293  1.00  0.00    -0.301 NA
ATOM      5  C   UNL     1      12.115   7.520 -11.217  1.00  0.00    +0.100 C 
ATOM      6  C   UNL     1      11.537   8.339 -10.043  1.00  0.00    +0.100 C 
ENDROOT
BRANCH   1   7
ATOM      7  C   UNL     1      10.756   6.973  -8.137  1.00  0.00    +0.112 C 
BRANCH   7   8
ATOM      8  C   UNL     1       9.807   7.280  -6.966  1.00  0.00    +0.171 C 
BRANCH   8   9
ATOM      9  O   UNL     1       9.175   8.544  -7.172  1.00  0.00    -0.395 OA
ATOM     10  H   UNL     1       8.438   8.355  -7.787  1.00  0.00    +0.210 HD
ENDBRANCH   8   9
ENDBRANCH   7   8
ENDBRANCH   1   7
BRANCH   4  11
ATOM     11  C   UNL     1      11.453   5.974 -12.981  1.00  0.00    +0.086 C 
BRANCH  11  12
ATOM     12  C   UNL     1      10.257   5.381 -13.736  1.00  0.00    +0.037 C 
BRANCH  12  13
ATOM     13  C   UNL     1       9.973   3.931 -13.313  1.00  0.00    +0.124 C 
BRANCH  13  14
ATOM     14  N   UNL     1       8.980   3.276 -14.211  1.00  0.00    -0.340 N 
ATOM     15  C   UNL     1       7.674   3.170 -13.654  1.00  0.00    +0.055 A 
ATOM     16  C   UNL     1       9.546   2.316 -15.095  1.00  0.00    +0.057 A 
ATOM     17  C   UNL     1       7.033   4.314 -13.130  1.00  0.00    +0.027 A 
ATOM     18  C   UNL     1       6.968   1.951 -13.629  1.00  0.00    +0.036 A 
ATOM     19  C   UNL     1      10.625   2.674 -15.929  1.00  0.00    +0.048 A 
ATOM     20  C   UNL     1       9.025   1.011 -15.221  1.00  0.00    +0.036 A 
ATOM     21  C   UNL     1       5.755   4.244 -12.571  1.00  0.00    +0.002 A 
ATOM     22  C   UNL     1       5.688   1.887 -13.055  1.00  0.00    +0.017 A 
ATOM     23  S   UNL     1       7.649   0.426 -14.257  1.00  0.00    -0.086 SA
ATOM     24  C   UNL     1      11.197   1.752 -16.812  1.00  0.00    +0.043 A 
ATOM     25  C   UNL     1       9.611   0.089 -16.114  1.00  0.00    +0.019 A 
ATOM     26  C   UNL     1       5.083   3.030 -12.530  1.00  0.00    +0.001 A 
ATOM     27  C   UNL     1      10.697   0.458 -16.904  1.00  0.00    +0.022 A 
ATOM     28 Cl   UNL     1      12.526   2.229 -17.799  1.00  0.00    -0.084 Cl
ENDBRANCH  13  14
ENDBRANCH  12  13
ENDBRANCH  11  12
ENDBRANCH   4  11
TORSDOF 7
ENDMDL
MODEL 3
REMARK VINA RESULT:    -7.757      4.543      8.312
REMARK INTER + INTRA:         -11.108
REMARK INTER:                 -10.576
REMARK INTRA:                  -0.531
REMARK UNBOUND:                -0.403
REMARK SMILES OCCN1CCN(CCCN2c3ccccc3Sc3ccc(Cl)cc32)CC1
REMARK SMILES IDX 4 1 5 2 6 3 7 4 26 5 27 6 3 7 2 8 1 9 8 11 9 12 10 13 11 14
REMARK SMILES IDX 12 15 25 16 13 17 17 18 24 19 19 20 14 21 16 22 18 23 22 24
REMARK SMILES IDX 20 25 15 26 21 27 23 28
REMARK H PARENT 1 10
ROOT
ATOM      1  N   UNL     1       5.080  -0.674 -14.364  1.00  0.00    -0.299 NA
ATOM      2  C   UNL     1       4.490   0.519 -13.721  1.00  0.00    +0.100 C 
ATOM      3  C   UNL     1       5.447   1.215 -12.731  1.00  0.00    +0.100 C 
ATOM      4  N   UNL     1       6.682   1.735 -13.358  1.00  0.00    -0.301 NA
ATOM      5  C   UNL     1       7.066   0.909 -14.527  1.00  0.00    +0.100 C 
ATOM      6  C   UNL     1       6.552  -0.546 -14.467  1.00  0.00    +0.100 C 
ENDROOT
BRANCH   1   7
ATOM      7  C   UNL     1       4.423  -0.924 -15.664  1.00  0.00    +0.112 C 
BRANCH   7   8
ATOM      8  C   UNL     1       5.359  -1.633 -16.658  1.00  0.00    +0.171 C 
BRANCH   8   9
ATOM      9  O   UNL     1       5.399  -3.032 -16.373  1.00  0.00    -0.395 OA
ATOM     10  H   UNL     1       6.009  -3.112 -15.612  1.00  0.00    +0.210 HD
ENDBRANCH   8   9
ENDBRANCH   7   8
ENDBRANCH   1   7
BRANCH   4  11
ATOM     11  C   UNL     1       6.559   3.153 -13.723  1.00  0.00    +0.086 C 
BRANCH  11  12
ATOM     12  C   UNL     1       7.422   4.077 -12.854  1.00  0.00    +0.037 C 
BRANCH  12  13
ATOM     13  C   UNL     1       8.302   5.008 -13.705  1.00  0.00    +0.124 C 
BRANCH  13  14
ATOM     14  N   UNL     1       9.746   4.865 -13.367  1.00  0.00    -0.340 N 
ATOM     15  C   UNL     1      10.230   5.845 -12.456  1.00  0.00    +0.055 A 
ATOM     16  C   UNL     1      10.529   4.298 -14.412  1.00  0.00    +0.057 A 
ATOM     17  C   UNL     1       9.562   6.062 -11.230  1.00  0.00    +0.027 A 
ATOM     18  C   UNL     1      11.387   6.604 -12.717  1.00  0.00    +0.036 A 
ATOM     19  C   UNL     1      10.155   3.065 -14.984  1.00  0.00    +0.048 A 
ATOM     20  C   UNL     1      11.722   4.897 -14.867  1.00  0.00    +0.036 A 
ATOM     21  C   UNL     1      10.006   7.019 -10.315  1.00  0.00    +0.002 A 
ATOM     22  C   UNL     1      11.821   7.573 -11.797  1.00  0.00    +0.017 A 
ATOM     23  S   UNL     1      12.335   6.438 -14.220  1.00  0.00    -0.086 SA
ATOM     24  C   UNL     1      10.910   2.481 -16.007  1.00  0.00    +0.043 A 
ATOM     25  C   UNL     1      12.474   4.301 -15.901  1.00  0.00    +0.019 A 
ATOM     26  C   UNL     1      11.134   7.779 -10.600  1.00  0.00    +0.001 A 
ATOM     27  C   UNL     1      12.066   3.097 -16.472  1.00  0.00    +0.022 A 
ATOM     28 Cl   UNL     1      10.404   0.983 -16.689  1.00  0.00    -0.084 Cl
ENDBRANCH  13  14
ENDBRANCH  12  13
ENDBRANCH  11  12
ENDBRANCH   4  11
TORSDOF 7
ENDMDL
MODEL 4
REMARK VINA RESULT:    -7.678      5.586      9.635
REMARK INTER + INTRA:         -10.998
REMARK INTER:                 -10.319
REMARK INTRA:                  -0.679
REMARK UNBOUND:                -0.403
REMARK SMILES OCCN1CCN(CCCN2c3ccccc3Sc3ccc(Cl)cc32)CC1
REMARK SMILES IDX 4 1 5 2 6 3 7 4 26 5 27 6 3 7 2 8 1 9 8 11 9 12 10 13 11 14
REMARK SMILES IDX 12 15 25 16 13 17 17 18 24 19 19 20 14 21 16 22 18 23 22 24
REMARK SMILES IDX 20 25 15 26 21 27 23 28
REMARK H PARENT 1 10
ROOT
ATOM      1  N   UNL     1       4.318  -0.400 -16.838  1.00  0.00    -0.299 NA
ATOM      2  C   UNL     1       5.649   0.182 -17.113  1.00  0.00    +0.100 C 
ATOM      3  C   UNL     1       6.168   1.083 -15.974  1.00  0.00    +0.100 C 
ATOM      4  N   UNL     1       6.360   0.375 -14.690  1.00  0.00    -0.301 NA
ATOM      5  C   UNL     1       5.403  -0.750 -14.562  1.00  0.00    +0.100 C 
ATOM      6  C   UNL     1       4.106  -0.569 -15.381  1.00  0.00    +0.100 C 
ENDROOT
BRANCH   1   7
ATOM      7  C   UNL     1       4.147  -1.653 -17.602  1.00  0.00    +0.112 C 
BRANCH   7   8
ATOM      8  C   UNL     1       5.458  -2.451 -17.706  1.00  0.00    +0.171 C 
BRANCH   8   9
ATOM      9  O   UNL     1       5.473  -3.489 -16.725  1.00  0.00    -0.395 OA
ATOM     10  H   UNL     1       6.422  -3.656 -16.555  1.00  0.00    +0.210 HD
ENDBRANCH   8   9
ENDBRANCH   7   8
ENDBRANCH   1   7
BRANCH   4  11
ATOM     11  C   UNL     1       7.745  -0.082 -14.515  1.00  0.00    +0.086 C 
BRANCH  11  12
ATOM     12  C   UNL     1       8.755   0.723 -15.342  1.00  0.00    +0.037 C 
BRANCH  12  13
ATOM     13  C   UNL     1       9.713   1.531 -14.452  1.00  0.00    +0.124 C 
BRANCH  13  14
ATOM     14  N   UNL     1       9.737   2.973 -14.829  1.00  0.00    -0.340 N 
ATOM     15  C   UNL     1      10.909   3.370 -15.531  1.00  0.00    +0.055 A 
ATOM     16  C   UNL     1       9.026   3.815 -13.930  1.00  0.00    +0.057 A 
ATOM     17  C   UNL     1      11.321   2.659 -16.680  1.00  0.00    +0.027 A 
ATOM     18  C   UNL     1      11.675   4.485 -15.138  1.00  0.00    +0.036 A 
ATOM     19  C   UNL     1       7.681   3.534 -13.613  1.00  0.00    +0.048 A 
ATOM     20  C   UNL     1       9.599   4.980 -13.379  1.00  0.00    +0.036 A 
ATOM     21  C   UNL     1      12.469   3.019 -17.390  1.00  0.00    +0.002 A 
ATOM     22  C   UNL     1      12.835   4.834 -15.850  1.00  0.00    +0.017 A 
ATOM     23  S   UNL     1      11.275   5.479 -13.712  1.00  0.00    -0.086 SA
ATOM     24  C   UNL     1       6.956   4.350 -12.737  1.00  0.00    +0.043 A 
ATOM     25  C   UNL     1       8.860   5.795 -12.496  1.00  0.00    +0.019 A 
ATOM     26  C   UNL     1      13.229   4.104 -16.973  1.00  0.00    +0.001 A 
ATOM     27  C   UNL     1       7.542   5.477 -12.172  1.00  0.00    +0.022 A 
ATOM     28 Cl   UNL     1       5.322   3.956 -12.363  1.00  0.00    -0.084 Cl
ENDBRANCH  13  14
ENDBRANCH  12  13
ENDBRANCH  11  12
ENDBRANCH   4  11
TORSDOF 7
ENDMDL
MODEL 5
REMARK VINA RESULT:    -7.657      5.178      9.372
REMARK INTER + INTRA:         -10.970
REMARK INTER:                  -9.855
REMARK INTRA:                  -1.115
REMARK UNBOUND:                -0.403
REMARK SMILES OCCN1CCN(CCCN2c3ccccc3Sc3ccc(Cl)cc32)CC1
REMARK SMILES IDX 4 1 5 2 6 3 7 4 26 5 27 6 3 7 2 8 1 9 8 11 9 12 10 13 11 14
REMARK SMILES IDX 12 15 25 16 13 17 17 18 24 19 19 20 14 21 16 22 18 23 22 24
REMARK SMILES IDX 20 25 15 26 21 27 23 28
REMARK H PARENT 1 10
ROOT
ATOM      1  N   UNL     1       6.194  -0.818 -19.257  1.00  0.00    -0.299 NA
ATOM      2  C   UNL     1       7.571  -0.391 -19.583  1.00  0.00    +0.100 C 
ATOM      3  C   UNL     1       7.761   1.139 -19.544  1.00  0.00    +0.100 C 
ATOM      4  N   UNL     1       7.519   1.738 -18.213  1.00  0.00    -0.301 NA
ATOM      5  C   UNL     1       6.517   0.952 -17.456  1.00  0.00    +0.100 C 
ATOM      6  C   UNL     1       5.541   0.152 -18.347  1.00  0.00    +0.100 C 
ENDROOT
BRANCH   1   7
ATOM      7  C   UNL     1       6.205  -2.198 -18.728  1.00  0.00    +0.112 C 
BRANCH   7   8
ATOM      8  C   UNL     1       5.001  -2.476 -17.811  1.00  0.00    +0.171 C 
BRANCH   8   9
ATOM      9  O   UNL     1       5.458  -2.909 -16.529  1.00  0.00    -0.395 OA
ATOM     10  H   UNL     1       5.373  -2.120 -15.956  1.00  0.00    +0.210 HD
ENDBRANCH   8   9
ENDBRANCH   7   8
ENDBRANCH   1   7
BRANCH   4  11
ATOM     11  C   UNL     1       8.763   1.896 -17.447  1.00  0.00    +0.086 C 
BRANCH  11  12
ATOM     12  C   UNL     1       8.691   3.019 -16.404  1.00  0.00    +0.037 C 
BRANCH  12  13
ATOM     13  C   UNL     1       9.525   2.695 -15.154  1.00  0.00    +0.124 C 
BRANCH  13  14
ATOM     14  N   UNL     1       8.708   2.766 -13.909  1.00  0.00    -0.340 N 
ATOM     15  C   UNL     1       7.650   1.815 -13.854  1.00  0.00    +0.055 A 
ATOM     16  C   UNL     1       8.634   4.068 -13.341  1.00  0.00    +0.057 A 
ATOM     17  C   UNL     1       7.919   0.445 -14.067  1.00  0.00    +0.027 A 
ATOM     18  C   UNL     1       6.324   2.187 -13.560  1.00  0.00    +0.036 A 
ATOM     19  C   UNL     1       9.817   4.780 -13.053  1.00  0.00    +0.048 A 
ATOM     20  C   UNL     1       7.407   4.666 -12.988  1.00  0.00    +0.036 A 
ATOM     21  C   UNL     1       6.905  -0.514 -14.025  1.00  0.00    +0.002 A 
ATOM     22  C   UNL     1       5.307   1.218 -13.530  1.00  0.00    +0.017 A 
ATOM     23  S   UNL     1       5.835   3.877 -13.265  1.00  0.00    -0.086 SA
ATOM     24  C   UNL     1       9.775   6.059 -12.488  1.00  0.00    +0.043 A 
ATOM     25  C   UNL     1       7.375   5.958 -12.421  1.00  0.00    +0.019 A 
ATOM     26  C   UNL     1       5.597  -0.128 -13.760  1.00  0.00    +0.001 A 
ATOM     27  C   UNL     1       8.558   6.654 -12.175  1.00  0.00    +0.022 A 
ATOM     28 Cl   UNL     1      11.244   6.899 -12.170  1.00  0.00    -0.084 Cl
ENDBRANCH  13  14
ENDBRANCH  12  13
ENDBRANCH  11  12
ENDBRANCH   4  11
TORSDOF 7
ENDMDL
MODEL 6
REMARK VINA RESULT:    -7.574      1.619      2.319
REMARK INTER + INTRA:         -10.856
REMARK INTER:                 -10.859
REMARK INTRA:                   0.003
REMARK UNBOUND:                -0.403
REMARK SMILES OCCN1CCN(CCCN2c3ccccc3Sc3ccc(Cl)cc32)CC1
REMARK SMILES IDX 4 1 5 2 6 3 7 4 26 5 27 6 3 7 2 8 1 9 8 11 9 12 10 13 11 14
REMARK SMILES IDX 12 15 25 16 13 17 17 18 24 19 19 20 14 21 16 22 18 23 22 24
REMARK SMILES IDX 20 25 15 26 21 27 23 28
REMARK H PARENT 1 10
ROOT
ATOM      1  N   UNL     1      10.991   8.982  -5.594  1.00  0.00    -0.299 NA
ATOM      2  C   UNL     1      10.394   7.707  -6.043  1.00  0.00    +0.100 C 
ATOM      3  C   UNL     1       9.490   7.859  -7.283  1.00  0.00    +0.100 C 
ATOM      4  N   UNL     1      10.199   8.350  -8.484  1.00  0.00    -0.301 NA
ATOM      5  C   UNL     1      11.334   9.224  -8.104  1.00  0.00    +0.100 C 
ATOM      6  C   UNL     1      11.166   9.914  -6.733  1.00  0.00    +0.100 C 
ENDROOT
BRANCH   1   7
ATOM      7  C   UNL     1      12.244   8.721  -4.855  1.00  0.00    +0.112 C 
BRANCH   7   8
ATOM      8  C   UNL     1      12.006   8.583  -3.342  1.00  0.00    +0.171 C 
BRANCH   8   9
ATOM      9  O   UNL     1      11.936   9.876  -2.742  1.00  0.00    -0.395 OA
ATOM     10  H   UNL     1      12.764   9.956  -2.226  1.00  0.00    +0.210 HD
ENDBRANCH   8   9
ENDBRANCH   7   8
ENDBRANCH   1   7
BRANCH   4  11
ATOM     11  C   UNL     1      10.641   7.249  -9.351  1.00  0.00    +0.086 C 
BRANCH  11  12
ATOM     12  C   UNL     1       9.830   7.139 -10.649  1.00  0.00    +0.037 C 
BRANCH  12  13
ATOM     13  C   UNL     1       9.488   5.679 -10.990  1.00  0.00    +0.124 C 
BRANCH  13  14
ATOM     14  N   UNL     1       9.083   5.524 -12.416  1.00  0.00    -0.340 N 
ATOM     15  C   UNL     1       7.906   4.748 -12.604  1.00  0.00    +0.055 A 
ATOM     16  C   UNL     1      10.173   5.547 -13.330  1.00  0.00    +0.057 A 
ATOM     17  C   UNL     1       6.726   5.068 -11.896  1.00  0.00    +0.027 A 
ATOM     18  C   UNL     1       7.857   3.668 -13.508  1.00  0.00    +0.036 A 
ATOM     19  C   UNL     1      11.084   6.623 -13.315  1.00  0.00    +0.048 A 
ATOM     20  C   UNL     1      10.351   4.552 -14.313  1.00  0.00    +0.036 A 
ATOM     21  C   UNL     1       5.555   4.325 -12.053  1.00  0.00    +0.002 A 
ATOM     22  C   UNL     1       6.678   2.918 -13.651  1.00  0.00    +0.017 A 
ATOM     23  S   UNL     1       9.266   3.150 -14.472  1.00  0.00    -0.086 SA
ATOM     24  C   UNL     1      12.160   6.676 -14.207  1.00  0.00    +0.043 A 
ATOM     25  C   UNL     1      11.441   4.613 -15.206  1.00  0.00    +0.019 A 
ATOM     26  C   UNL     1       5.531   3.246 -12.928  1.00  0.00    +0.001 A 
ATOM     27  C   UNL     1      12.346   5.671 -15.150  1.00  0.00    +0.022 A 
ATOM     28 Cl   UNL     1      13.259   8.000 -14.140  1.00  0.00    -0.084 Cl
ENDBRANCH  13  14
ENDBRANCH  12  13
ENDBRANCH  11  12
ENDBRANCH   4  11
TORSDOF 7
ENDMDL
MODEL 7
REMARK VINA RESULT:    -7.521      5.060      8.842
REMARK INTER + INTRA:         -10.782
REMARK INTER:                 -10.363
REMARK INTRA:                  -0.419
REMARK UNBOUND:                -0.403
REMARK SMILES OCCN1CCN(CCCN2c3ccccc3Sc3ccc(Cl)cc32)CC1
REMARK SMILES IDX 4 1 5 2 6 3 7 4 26 5 27 6 3 7 2 8 1 9 8 11 9 12 10 13 11 14
REMARK SMILES IDX 12 15 25 16 13 17 17 18 24 19 19 20 14 21 16 22 18 23 22 24
REMARK SMILES IDX 20 25 15 26 21 27 23 28
REMARK H PARENT 1 10
ROOT
ATOM      1  N   UNL     1       6.563  -0.506 -15.228  1.00  0.00    -0.299 NA
ATOM      2  C   UNL     1       7.789   0.040 -14.609  1.00  0.00    +0.100 C 
ATOM      3  C   UNL     1       8.961   0.189 -15.601  1.00  0.00    +0.100 C 
ATOM      4  N   UNL     1       8.688   1.125 -16.713  1.00  0.00    -0.301 NA
ATOM      5  C   UNL     1       7.243   1.146 -17.041  1.00  0.00    +0.100 C 
ATOM      6  C   UNL     1       6.493  -0.150 -16.664  1.00  0.00    +0.100 C 
ENDROOT
BRANCH   1   7
ATOM      7  C   UNL     1       5.376  -0.076 -14.461  1.00  0.00    +0.112 C 
BRANCH   7   8
ATOM      8  C   UNL     1       4.125  -0.893 -14.825  1.00  0.00    +0.171 C 
BRANCH   8   9
ATOM      9  O   UNL     1       2.949  -0.180 -14.438  1.00  0.00    -0.395 OA
ATOM     10  H   UNL     1       2.867   0.538 -15.097  1.00  0.00    +0.210 HD
ENDBRANCH   8   9
ENDBRANCH   7   8
ENDBRANCH   1   7
BRANCH   4  11
ATOM     11  C   UNL     1       9.191   2.476 -16.430  1.00  0.00    +0.086 C 
BRANCH  11  12
ATOM     12  C   UNL     1      10.618   2.485 -15.868  1.00  0.00    +0.037 C 
BRANCH  12  13
ATOM     13  C   UNL     1      10.679   3.116 -14.468  1.00  0.00    +0.124 C 
BRANCH  13  14
ATOM     14  N   UNL     1      10.208   4.530 -14.477  1.00  0.00    -0.340 N 
ATOM     15  C   UNL     1      11.216   5.477 -14.815  1.00  0.00    +0.055 A 
ATOM     16  C   UNL     1       9.149   4.791 -13.563  1.00  0.00    +0.057 A 
ATOM     17  C   UNL     1      11.975   5.310 -15.994  1.00  0.00    +0.027 A 
ATOM     18  C   UNL     1      11.473   6.612 -14.021  1.00  0.00    +0.036 A 
ATOM     19  C   UNL     1       7.978   4.006 -13.598  1.00  0.00    +0.048 A 
ATOM     20  C   UNL     1       9.194   5.862 -12.647  1.00  0.00    +0.036 A 
ATOM     21  C   UNL     1      12.976   6.217 -16.353  1.00  0.00    +0.002 A 
ATOM     22  C   UNL     1      12.489   7.513 -14.383  1.00  0.00    +0.017 A 
ATOM     23  S   UNL     1      10.592   6.954 -12.508  1.00  0.00    -0.086 SA
ATOM     24  C   UNL     1       6.919   4.245 -12.716  1.00  0.00    +0.043 A 
ATOM     25  C   UNL     1       8.121   6.092 -11.760  1.00  0.00    +0.019 A 
ATOM     26  C   UNL     1      13.236   7.317 -15.545  1.00  0.00    +0.001 A 
ATOM     27  C   UNL     1       6.987   5.282 -11.792  1.00  0.00    +0.022 A 
ATOM     28 Cl   UNL     1       5.515   3.249 -12.781  1.00  0.00    -0.084 Cl
ENDBRANCH  13  14
ENDBRANCH  12  13
ENDBRANCH  11  12
ENDBRANCH   4  11
TORSDOF 7
ENDMDL
MODEL 8
REMARK VINA RESULT:    -7.513      4.801      8.645
REMARK INTER + INTRA:         -10.771
REMARK INTER:                 -10.181
REMARK INTRA:                  -0.590
REMARK UNBOUND:                -0.403
REMARK SMILES OCCN1CCN(CCCN2c3ccccc3Sc3ccc(Cl)cc32)CC1
REMARK SMILES IDX 4 1 5 2 6 3 7 4 26 5 27 6 3 7 2 8 1 9 8 11 9 12 10 13 11 14
REMARK SMILES IDX 12 15 25 16 13 17 17 18 24 19 19 20 14 21 16 22 18 23 22 24
REMARK SMILES IDX 20 25 15 26 21 27 23 28
REMARK H PARENT 1 10
ROOT
ATOM      1  N   UNL     1       8.899  -0.951 -17.841  1.00  0.00    -0.299 NA
ATOM      2  C   UNL     1       8.910  -0.145 -16.602  1.00  0.00    +0.100 C 
ATOM      3  C   UNL     1      10.328   0.252 -16.144  1.00  0.00    +0.100 C 
ATOM      4  N   UNL     1      11.055   1.100 -17.114  1.00  0.00    -0.301 NA
ATOM      5  C   UNL     1      10.624   0.800 -18.501  1.00  0.00    +0.100 C 
ATOM      6  C   UNL     1      10.068  -0.628 -18.692  1.00  0.00    +0.100 C 
ENDROOT
BRANCH   1   7
ATOM      7  C   UNL     1       7.606  -0.789 -18.538  1.00  0.00    +0.112 C 
BRANCH   7   8
ATOM      8  C   UNL     1       6.441  -0.583 -17.555  1.00  0.00    +0.171 C 
BRANCH   8   9
ATOM      9  O   UNL     1       5.894  -1.847 -17.178  1.00  0.00    -0.395 OA
ATOM     10  H   UNL     1       5.781  -1.789 -16.208  1.00  0.00    +0.210 HD
ENDBRANCH   8   9
ENDBRANCH   7   8
ENDBRANCH   1   7
BRANCH   4  11
ATOM     11  C   UNL     1      10.914   2.530 -16.809  1.00  0.00    +0.086 C 
BRANCH  11  12
ATOM     12  C   UNL     1      10.531   2.801 -15.349  1.00  0.00    +0.037 C 
BRANCH  12  13
ATOM     13  C   UNL     1       9.354   3.785 -15.238  1.00  0.00    +0.124 C 
BRANCH  13  14
ATOM     14  N   UNL     1       8.826   3.861 -13.846  1.00  0.00    -0.340 N 
ATOM     15  C   UNL     1       7.646   3.094 -13.630  1.00  0.00    +0.055 A 
ATOM     16  C   UNL     1       9.103   5.093 -13.191  1.00  0.00    +0.057 A 
ATOM     17  C   UNL     1       7.616   1.728 -13.985  1.00  0.00    +0.027 A 
ATOM     18  C   UNL     1       6.493   3.646 -13.037  1.00  0.00    +0.036 A 
ATOM     19  C   UNL     1      10.427   5.569 -13.114  1.00  0.00    +0.048 A 
ATOM     20  C   UNL     1       8.098   5.844 -12.547  1.00  0.00    +0.036 A 
ATOM     21  C   UNL     1       6.474   0.948 -13.792  1.00  0.00    +0.002 A 
ATOM     22  C   UNL     1       5.344   2.857 -12.856  1.00  0.00    +0.017 A 
ATOM     23  S   UNL     1       6.386   5.354 -12.535  1.00  0.00    -0.086 SA
ATOM     24  C   UNL     1      10.729   6.774 -12.470  1.00  0.00    +0.043 A 
ATOM     25  C   UNL     1       8.412   7.059 -11.902  1.00  0.00    +0.019 A 
ATOM     26  C   UNL     1       5.336   1.513 -13.231  1.00  0.00    +0.001 A 
ATOM     27  C   UNL     1       9.726   7.525 -11.868  1.00  0.00    +0.022 A 
ATOM     28 Cl   UNL     1      12.359   7.327 -12.418  1.00  0.00    -0.084 Cl
ENDBRANCH  13  14
ENDBRANCH  12  13
ENDBRANCH  11  12
ENDBRANCH   4  11
TORSDOF 7
ENDMDL
MODEL 9
REMARK VINA RESULT:    -7.451      4.325      7.079
REMARK INTER + INTRA:         -10.685
REMARK INTER:                  -9.885
REMARK INTRA:                  -0.800
REMARK UNBOUND:                -0.403
REMARK SMILES OCCN1CCN(CCCN2c3ccccc3Sc3ccc(Cl)cc32)CC1
REMARK SMILES IDX 4 1 5 2 6 3 7 4 26 5 27 6 3 7 2 8 1 9 8 11 9 12 10 13 11 14
REMARK SMILES IDX 12 15 25 16 13 17 17 18 24 19 19 20 14 21 16 22 18 23 22 24
REMARK SMILES IDX 20 25 15 26 21 27 23 28
REMARK H PARENT 1 10
ROOT
ATOM      1  N   UNL     1      11.960   5.411 -18.145  1.00  0.00    -0.299 NA
ATOM      2  C   UNL     1      10.802   4.538 -18.431  1.00  0.00    +0.100 C 
ATOM      3  C   UNL     1      11.193   3.066 -18.674  1.00  0.00    +0.100 C 
ATOM      4  N   UNL     1      11.836   2.418 -17.510  1.00  0.00    -0.301 NA
ATOM      5  C   UNL     1      12.584   3.410 -16.702  1.00  0.00    +0.100 C 
ATOM      6  C   UNL     1      13.052   4.647 -17.499  1.00  0.00    +0.100 C 
ENDROOT
BRANCH   1   7
ATOM      7  C   UNL     1      11.525   6.586 -17.360  1.00  0.00    +0.112 C 
BRANCH   7   8
ATOM      8  C   UNL     1      12.657   7.144 -16.481  1.00  0.00    +0.171 C 
BRANCH   8   9
ATOM      9  O   UNL     1      12.908   8.508 -16.822  1.00  0.00    -0.395 OA
ATOM     10  H   UNL     1      13.681   8.761 -16.278  1.00  0.00    +0.210 HD
ENDBRANCH   8   9
ENDBRANCH   7   8
ENDBRANCH   1   7
BRANCH   4  11
ATOM     11  C   UNL     1      10.868   1.680 -16.687  1.00  0.00    +0.086 C 
BRANCH  11  12
ATOM     12  C   UNL     1      10.555   2.375 -15.355  1.00  0.00    +0.037 C 
BRANCH  12  13
ATOM     13  C   UNL     1       9.170   3.042 -15.369  1.00  0.00    +0.124 C 
BRANCH  13  14
ATOM     14  N   UNL     1       8.547   3.052 -14.015  1.00  0.00    -0.340 N 
ATOM     15  C   UNL     1       7.484   2.119 -13.858  1.00  0.00    +0.055 A 
ATOM     16  C   UNL     1       8.593   4.319 -13.368  1.00  0.00    +0.057 A 
ATOM     17  C   UNL     1       7.682   0.759 -14.187  1.00  0.00    +0.027 A 
ATOM     18  C   UNL     1       6.226   2.495 -13.349  1.00  0.00    +0.036 A 
ATOM     19  C   UNL     1       9.823   4.990 -13.218  1.00  0.00    +0.048 A 
ATOM     20  C   UNL     1       7.447   4.916 -12.803  1.00  0.00    +0.036 A 
ATOM     21  C   UNL     1       6.660  -0.182 -14.050  1.00  0.00    +0.002 A 
ATOM     22  C   UNL     1       5.198   1.545 -13.225  1.00  0.00    +0.017 A 
ATOM     23  S   UNL     1       5.831   4.174 -12.889  1.00  0.00    -0.086 SA
ATOM     24  C   UNL     1       9.899   6.233 -12.580  1.00  0.00    +0.043 A 
ATOM     25  C   UNL     1       7.533   6.171 -12.164  1.00  0.00    +0.019 A 
ATOM     26  C   UNL     1       5.416   0.210 -13.573  1.00  0.00    +0.001 A 
ATOM     27  C   UNL     1       8.757   6.830 -12.057  1.00  0.00    +0.022 A 
ATOM     28 Cl   UNL     1      11.421   7.026 -12.436  1.00  0.00    -0.084 Cl
ENDBRANCH  13  14
ENDBRANCH  12  13
ENDBRANCH  11  12
ENDBRANCH   4  11
TORSDOF 7
ENDMDL
