REMARK SMILES OCCN1CCN(CCCN2c3ccccc3Sc3ccc(Cl)cc32)CC1
REMARK SMILES IDX 4 1 5 2 6 3 7 4 26 5 27 6 3 7 2 8 1 9 8 11 9 12 10 13 11 14
REMARK SMILES IDX 12 15 25 16 13 17 17 18 24 19 19 20 14 21 16 22 18 23 22 24
REMARK SMILES IDX 20 25 15 26 21 27 23 28
REMARK H PARENT 1 10
ROOT
ATOM      1  N   UNL     1       4.141   1.248  -0.449  1.00  0.00    -0.299 NA
ATOM      2  C   UNL     1       3.961   0.640   0.886  1.00  0.00    +0.100 C 
ATOM      3  C   UNL     1       2.640   1.048   1.570  1.00  0.00    +0.100 C 
ATOM      4  N   UNL     1       1.429   0.627   0.832  1.00  0.00    -0.301 NA
ATOM      5  C   UNL     1       1.692   0.577  -0.626  1.00  0.00    +0.100 C 
ATOM      6  C   UNL     1       2.832   1.509  -1.092  1.00  0.00    +0.100 C 
ENDROOT
BRANCH   1   7
ATOM      7  C   UNL     1       5.038   0.408  -1.270  1.00  0.00    +0.112 C 
BRANCH   7   8
ATOM      8  C   UNL     1       5.613   1.178  -2.471  1.00  0.00    +0.171 C 
BRANCH   8   9
ATOM      9  O   UNL     1       6.142   2.431  -2.036  1.00  0.00    -0.395 OA
ATOM     10  H   UNL     1       5.538   2.721  -1.323  1.00  0.00    +0.210 HD
ENDBRANCH   8   9
ENDBRANCH   7   8
ENDBRANCH   1   7
BRANCH   4  11
ATOM     11  C   UNL     1       0.903  -0.654   1.323  1.00  0.00    +0.086 C 
BRANCH  11  12
ATOM     12  C   UNL     1      -0.492  -0.983   0.777  1.00  0.00    +0.037 C 
BRANCH  12  13
ATOM     13  C   UNL     1      -1.561  -0.017   1.314  1.00  0.00    +0.124 C 
BRANCH  13  14
ATOM     14  N   UNL     1      -2.878  -0.222   0.647  1.00  0.00    -0.340 N 
ATOM     15  C   UNL     1      -3.461  -1.497   0.892  1.00  0.00    +0.055 A 
ATOM     16  C   UNL     1      -3.025   0.497  -0.572  1.00  0.00    +0.057 A 
ATOM     17  C   UNL     1      -3.618  -1.960   2.217  1.00  0.00    +0.027 A 
ATOM     18  C   UNL     1      -3.925  -2.321  -0.152  1.00  0.00    +0.036 A 
ATOM     19  C   UNL     1      -2.804   1.889  -0.601  1.00  0.00    +0.048 A 
ATOM     20  C   UNL     1      -3.452  -0.124  -1.764  1.00  0.00    +0.036 A 
ATOM     21  C   UNL     1      -4.181  -3.208   2.493  1.00  0.00    +0.002 A 
ATOM     22  C   UNL     1      -4.480  -3.580   0.133  1.00  0.00    +0.017 A 
ATOM     23  S   UNL     1      -3.797  -1.867  -1.873  1.00  0.00    -0.086 SA
ATOM     24  C   UNL     1      -2.948   2.622  -1.784  1.00  0.00    +0.043 A 
ATOM     25  C   UNL     1      -3.592   0.624  -2.952  1.00  0.00    +0.019 A 
ATOM     26  C   UNL     1      -4.609  -4.021   1.451  1.00  0.00    +0.001 A 
ATOM     27  C   UNL     1      -3.336   1.994  -2.962  1.00  0.00    +0.022 A 
ATOM     28 Cl   UNL     1      -2.649   4.318  -1.777  1.00  0.00    -0.084 Cl
ENDBRANCH  13  14
ENDBRANCH  12  13
ENDBRANCH  11  12
ENDBRANCH   4  11
TORSDOF 7
