MODEL 1
REMARK VINA RESULT:    -8.597      0.000      0.000
REMARK INTER + INTRA:         -12.298
REMARK INTER:                 -11.613
REMARK INTRA:                  -0.685
REMARK UNBOUND:                -0.685
REMARK SMILES O=C(CCc1ccc(O)cc1)c1c(O)cc(O)cc1O
REMARK SMILES IDX 3 1 2 2 1 3 12 4 13 5 19 6 15 7 18 8 16 9 14 10 20 12 17 14
REMARK SMILES IDX 4 16 5 17 6 18 11 19 7 20 10 21 8 22 9 23
REMARK H PARENT 14 11 20 13 17 15 9 24
ROOT
ATOM      1  C   UNL     1      11.362   7.030  -7.247  1.00  0.00    +0.086 C 
ENDROOT
BRANCH   1   2
ATOM      2  C   UNL     1      10.709   7.843  -8.350  1.00  0.00    +0.170 C 
ATOM      3  O   UNL     1      10.254   8.973  -8.154  1.00  0.00    -0.294 OA
BRANCH   2   4
ATOM      4  C   UNL     1      10.579   7.272  -9.720  1.00  0.00    +0.101 A 
ATOM      5  C   UNL     1      11.514   7.656 -10.697  1.00  0.00    +0.133 A 
ATOM      6  C   UNL     1       9.575   6.359 -10.079  1.00  0.00    +0.133 A 
ATOM      7  C   UNL     1      11.419   7.187 -12.005  1.00  0.00    +0.093 A 
ATOM      8  C   UNL     1       9.479   5.880 -11.391  1.00  0.00    +0.093 A 
ATOM      9  C   UNL     1      10.400   6.307 -12.344  1.00  0.00    +0.123 A 
BRANCH   5  10
ATOM     10  O   UNL     1      12.565   8.499 -10.436  1.00  0.00    -0.507 OA
ATOM     11  H   UNL     1      12.262   9.419 -10.610  1.00  0.00    +0.293 HD
ENDBRANCH   5  10
BRANCH   6  12
ATOM     12  O   UNL     1       8.693   5.890  -9.144  1.00  0.00    -0.507 OA
ATOM     13  H   UNL     1       8.110   6.611  -8.850  1.00  0.00    +0.293 HD
ENDBRANCH   6  12
BRANCH   9  14
ATOM     14  O   UNL     1      10.344   5.869 -13.634  1.00  0.00    -0.508 OA
ATOM     15  H   UNL     1       9.429   5.645 -13.864  1.00  0.00    +0.293 HD
ENDBRANCH   9  14
ENDBRANCH   2   4
ENDBRANCH   1   2
BRANCH   1  16
ATOM     16  C   UNL     1      10.512   6.988  -5.976  1.00  0.00    +0.044 C 
BRANCH  16  17
ATOM     17  C   UNL     1      11.270   7.468  -4.759  1.00  0.00    -0.047 A 
ATOM     18  C   UNL     1      11.417   6.637  -3.639  1.00  0.00    +0.007 A 
ATOM     19  C   UNL     1      11.814   8.760  -4.723  1.00  0.00    +0.007 A 
ATOM     20  C   UNL     1      12.100   7.085  -2.506  1.00  0.00    +0.046 A 
ATOM     21  C   UNL     1      12.493   9.209  -3.591  1.00  0.00    +0.046 A 
ATOM     22  C   UNL     1      12.633   8.370  -2.493  1.00  0.00    +0.115 A 
BRANCH  22  23
ATOM     23  O   UNL     1      13.306   8.848  -1.408  1.00  0.00    -0.508 OA
ATOM     24  H   UNL     1      12.830   8.580  -0.605  1.00  0.00    +0.293 HD
ENDBRANCH  22  23
ENDBRANCH  16  17
ENDBRANCH   1  16
TORSDOF 8
ENDMDL
MODEL 2
REMARK VINA RESULT:    -8.430      0.941      2.360
REMARK INTER + INTRA:         -12.072
REMARK INTER:                 -11.323
REMARK INTRA:                  -0.749
REMARK UNBOUND:                -0.685
REMARK SMILES O=C(CCc1ccc(O)cc1)c1c(O)cc(O)cc1O
REMARK SMILES IDX 3 1 2 2 1 3 12 4 13 5 19 6 15 7 18 8 16 9 14 10 20 12 17 14
REMARK SMILES IDX 4 16 5 17 6 18 11 19 7 20 10 21 8 22 9 23
REMARK H PARENT 14 11 20 13 17 15 9 24
ROOT
ATOM      1  C   UNL     1      11.721   7.336  -8.001  1.00  0.00    +0.086 C 
ENDROOT
BRANCH   1   2
ATOM      2  C   UNL     1      10.967   8.011  -9.132  1.00  0.00    +0.170 C 
ATOM      3  O   UNL     1      10.250   8.999  -8.949  1.00  0.00    -0.294 OA
BRANCH   2   4
ATOM      4  C   UNL     1      11.057   7.468 -10.517  1.00  0.00    +0.101 A 
ATOM      5  C   UNL     1       9.969   6.732 -11.020  1.00  0.00    +0.133 A 
ATOM      6  C   UNL     1      12.170   7.668 -11.348  1.00  0.00    +0.133 A 
ATOM      7  C   UNL     1      10.013   6.166 -12.291  1.00  0.00    +0.093 A 
ATOM      8  C   UNL     1      12.216   7.106 -12.630  1.00  0.00    +0.093 A 
ATOM      9  C   UNL     1      11.137   6.352 -13.085  1.00  0.00    +0.123 A 
BRANCH   5  10
ATOM     10  O   UNL     1       8.814   6.527 -10.310  1.00  0.00    -0.507 OA
ATOM     11  H   UNL     1       8.095   6.339 -10.955  1.00  0.00    +0.293 HD
ENDBRANCH   5  10
BRANCH   6  12
ATOM     12  O   UNL     1      13.217   8.447 -10.937  1.00  0.00    -0.507 OA
ATOM     13  H   UNL     1      13.862   7.904 -10.452  1.00  0.00    +0.293 HD
ENDBRANCH   6  12
BRANCH   9  14
ATOM     14  O   UNL     1      11.139   5.784 -14.324  1.00  0.00    -0.508 OA
ATOM     15  H   UNL     1      11.562   4.912 -14.283  1.00  0.00    +0.293 HD
ENDBRANCH   9  14
ENDBRANCH   2   4
ENDBRANCH   1   2
BRANCH   1  16
ATOM     16  C   UNL     1      10.794   6.897  -6.865  1.00  0.00    +0.044 C 
BRANCH  16  17
ATOM     17  C   UNL     1      11.140   7.558  -5.550  1.00  0.00    -0.047 A 
ATOM     18  C   UNL     1      11.215   8.954  -5.454  1.00  0.00    +0.007 A 
ATOM     19  C   UNL     1      11.417   6.781  -4.416  1.00  0.00    +0.007 A 
ATOM     20  C   UNL     1      11.554   9.566  -4.245  1.00  0.00    +0.046 A 
ATOM     21  C   UNL     1      11.758   7.392  -3.209  1.00  0.00    +0.046 A 
ATOM     22  C   UNL     1      11.822   8.777  -3.131  1.00  0.00    +0.115 A 
BRANCH  22  23
ATOM     23  O   UNL     1      12.157   9.333  -1.931  1.00  0.00    -0.508 OA
ATOM     24  H   UNL     1      11.345   9.465  -1.415  1.00  0.00    +0.293 HD
ENDBRANCH  22  23
ENDBRANCH  16  17
ENDBRANCH   1  16
TORSDOF 8
ENDMDL
MODEL 3
REMARK VINA RESULT:    -7.641      7.117     10.652
REMARK INTER + INTRA:         -11.005
REMARK INTER:                 -10.241
REMARK INTRA:                  -0.764
REMARK UNBOUND:                -0.685
REMARK SMILES O=C(CCc1ccc(O)cc1)c1c(O)cc(O)cc1O
REMARK SMILES IDX 3 1 2 2 1 3 12 4 13 5 19 6 15 7 18 8 16 9 14 10 20 12 17 14
REMARK SMILES IDX 4 16 5 17 6 18 11 19 7 20 10 21 8 22 9 23
REMARK H PARENT 14 11 20 13 17 15 9 24
ROOT
ATOM      1  C   UNL     1       5.990   1.424 -12.872  1.00  0.00    +0.086 C 
ENDROOT
BRANCH   1   2
ATOM      2  C   UNL     1       6.158   0.045 -13.484  1.00  0.00    +0.170 C 
ATOM      3  O   UNL     1       6.898  -0.809 -12.989  1.00  0.00    -0.294 OA
BRANCH   2   4
ATOM      4  C   UNL     1       5.436  -0.306 -14.739  1.00  0.00    +0.101 A 
ATOM      5  C   UNL     1       6.177  -0.410 -15.930  1.00  0.00    +0.133 A 
ATOM      6  C   UNL     1       4.056  -0.553 -14.787  1.00  0.00    +0.133 A 
ATOM      7  C   UNL     1       5.550  -0.696 -17.141  1.00  0.00    +0.093 A 
ATOM      8  C   UNL     1       3.422  -0.845 -16.001  1.00  0.00    +0.093 A 
ATOM      9  C   UNL     1       4.178  -0.906 -17.169  1.00  0.00    +0.123 A 
BRANCH   5  10
ATOM     10  O   UNL     1       7.537  -0.243 -15.982  1.00  0.00    -0.507 OA
ATOM     11  H   UNL     1       7.743   0.299 -16.777  1.00  0.00    +0.293 HD
ENDBRANCH   5  10
BRANCH   6  12
ATOM     12  O   UNL     1       3.306  -0.547 -13.642  1.00  0.00    -0.507 OA
ATOM     13  H   UNL     1       2.388  -0.304 -13.850  1.00  0.00    +0.293 HD
ENDBRANCH   6  12
BRANCH   9  14
ATOM     14  O   UNL     1       3.605  -1.186 -18.374  1.00  0.00    -0.508 OA
ATOM     15  H   UNL     1       2.640  -1.120 -18.300  1.00  0.00    +0.293 HD
ENDBRANCH   9  14
ENDBRANCH   2   4
ENDBRANCH   1   2
BRANCH   1  16
ATOM     16  C   UNL     1       6.176   2.542 -13.900  1.00  0.00    +0.044 C 
BRANCH  16  17
ATOM     17  C   UNL     1       6.795   3.783 -13.298  1.00  0.00    -0.047 A 
ATOM     18  C   UNL     1       5.990   4.754 -12.684  1.00  0.00    +0.007 A 
ATOM     19  C   UNL     1       8.180   3.993 -13.369  1.00  0.00    +0.007 A 
ATOM     20  C   UNL     1       6.558   5.910 -12.145  1.00  0.00    +0.046 A 
ATOM     21  C   UNL     1       8.747   5.149 -12.833  1.00  0.00    +0.046 A 
ATOM     22  C   UNL     1       7.935   6.097 -12.225  1.00  0.00    +0.115 A 
BRANCH  22  23
ATOM     23  O   UNL     1       8.531   7.211 -11.712  1.00  0.00    -0.508 OA
ATOM     24  H   UNL     1       8.188   7.360 -10.816  1.00  0.00    +0.293 HD
ENDBRANCH  22  23
ENDBRANCH  16  17
ENDBRANCH   1  16
TORSDOF 8
ENDMDL
MODEL 4
REMARK VINA RESULT:    -7.629      2.035      3.678
REMARK INTER + INTRA:         -10.991
REMARK INTER:                 -10.214
REMARK INTRA:                  -0.776
REMARK UNBOUND:                -0.685
REMARK SMILES O=C(CCc1ccc(O)cc1)c1c(O)cc(O)cc1O
REMARK SMILES IDX 3 1 2 2 1 3 12 4 13 5 19 6 15 7 18 8 16 9 14 10 20 12 17 14
REMARK SMILES IDX 4 16 5 17 6 18 11 19 7 20 10 21 8 22 9 23
REMARK H PARENT 14 11 20 13 17 15 9 24
ROOT
ATOM      1  C   UNL     1      10.569   8.098 -10.301  1.00  0.00    +0.086 C 
ENDROOT
BRANCH   1   2
ATOM      2  C   UNL     1       9.639   7.797 -11.462  1.00  0.00    +0.170 C 
ATOM      3  O   UNL     1       8.821   8.620 -11.882  1.00  0.00    -0.294 OA
BRANCH   2   4
ATOM      4  C   UNL     1       9.677   6.461 -12.119  1.00  0.00    +0.101 A 
ATOM      5  C   UNL     1       8.610   5.572 -11.893  1.00  0.00    +0.133 A 
ATOM      6  C   UNL     1      10.718   6.050 -12.965  1.00  0.00    +0.133 A 
ATOM      7  C   UNL     1       8.610   4.295 -12.448  1.00  0.00    +0.093 A 
ATOM      8  C   UNL     1      10.720   4.769 -13.530  1.00  0.00    +0.093 A 
ATOM      9  C   UNL     1       9.666   3.901 -13.258  1.00  0.00    +0.123 A 
BRANCH   5  10
ATOM     10  O   UNL     1       7.518   5.896 -11.129  1.00  0.00    -0.507 OA
ATOM     11  H   UNL     1       7.716   5.641 -10.199  1.00  0.00    +0.293 HD
ENDBRANCH   5  10
BRANCH   6  12
ATOM     12  O   UNL     1      11.736   6.907 -13.284  1.00  0.00    -0.507 OA
ATOM     13  H   UNL     1      12.427   6.432 -13.777  1.00  0.00    +0.293 HD
ENDBRANCH   6  12
BRANCH   9  14
ATOM     14  O   UNL     1       9.626   2.643 -13.783  1.00  0.00    -0.508 OA
ATOM     15  H   UNL     1       9.523   2.694 -14.746  1.00  0.00    +0.293 HD
ENDBRANCH   9  14
ENDBRANCH   2   4
ENDBRANCH   1   2
BRANCH   1  16
ATOM     16  C   UNL     1      10.396   7.109  -9.146  1.00  0.00    +0.044 C 
BRANCH  16  17
ATOM     17  C   UNL     1      10.824   7.692  -7.818  1.00  0.00    -0.047 A 
ATOM     18  C   UNL     1      11.442   8.949  -7.759  1.00  0.00    +0.007 A 
ATOM     19  C   UNL     1      10.632   6.971  -6.631  1.00  0.00    +0.007 A 
ATOM     20  C   UNL     1      11.856   9.481  -6.535  1.00  0.00    +0.046 A 
ATOM     21  C   UNL     1      11.048   7.500  -5.409  1.00  0.00    +0.046 A 
ATOM     22  C   UNL     1      11.654   8.749  -5.370  1.00  0.00    +0.115 A 
BRANCH  22  23
ATOM     23  O   UNL     1      12.043   9.230  -4.154  1.00  0.00    -0.508 OA
ATOM     24  H   UNL     1      11.531  10.032  -3.960  1.00  0.00    +0.293 HD
ENDBRANCH  22  23
ENDBRANCH  16  17
ENDBRANCH   1  16
TORSDOF 8
ENDMDL
MODEL 5
REMARK VINA RESULT:    -7.590      7.165     10.853
REMARK INTER + INTRA:         -10.937
REMARK INTER:                 -10.222
REMARK INTRA:                  -0.715
REMARK UNBOUND:                -0.685
REMARK SMILES O=C(CCc1ccc(O)cc1)c1c(O)cc(O)cc1O
REMARK SMILES IDX 3 1 2 2 1 3 12 4 13 5 19 6 15 7 18 8 16 9 14 10 20 12 17 14
REMARK SMILES IDX 4 16 5 17 6 18 11 19 7 20 10 21 8 22 9 23
REMARK H PARENT 14 11 20 13 17 15 9 24
ROOT
ATOM      1  C   UNL     1       7.279   1.399 -13.897  1.00  0.00    +0.086 C 
ENDROOT
BRANCH   1   2
ATOM      2  C   UNL     1       6.662   0.013 -13.921  1.00  0.00    +0.170 C 
ATOM      3  O   UNL     1       6.893  -0.827 -13.047  1.00  0.00    -0.294 OA
BRANCH   2   4
ATOM      4  C   UNL     1       5.761  -0.383 -15.040  1.00  0.00    +0.101 A 
ATOM      5  C   UNL     1       4.387  -0.525 -14.775  1.00  0.00    +0.133 A 
ATOM      6  C   UNL     1       6.215  -0.607 -16.349  1.00  0.00    +0.133 A 
ATOM      7  C   UNL     1       3.503  -0.931 -15.772  1.00  0.00    +0.093 A 
ATOM      8  C   UNL     1       5.330  -1.011 -17.355  1.00  0.00    +0.093 A 
ATOM      9  C   UNL     1       3.981  -1.176 -17.052  1.00  0.00    +0.123 A 
BRANCH   5  10
ATOM     10  O   UNL     1       3.834  -0.275 -13.545  1.00  0.00    -0.507 OA
ATOM     11  H   UNL     1       4.170  -0.958 -12.921  1.00  0.00    +0.293 HD
ENDBRANCH   5  10
BRANCH   6  12
ATOM     12  O   UNL     1       7.528  -0.401 -16.676  1.00  0.00    -0.507 OA
ATOM     13  H   UNL     1       7.814   0.473 -16.358  1.00  0.00    +0.293 HD
ENDBRANCH   6  12
BRANCH   9  14
ATOM     14  O   UNL     1       3.082  -1.570 -17.998  1.00  0.00    -0.508 OA
ATOM     15  H   UNL     1       3.394  -1.303 -18.877  1.00  0.00    +0.293 HD
ENDBRANCH   9  14
ENDBRANCH   2   4
ENDBRANCH   1   2
BRANCH   1  16
ATOM     16  C   UNL     1       6.230   2.499 -13.719  1.00  0.00    +0.044 C 
BRANCH  16  17
ATOM     17  C   UNL     1       6.835   3.803 -13.250  1.00  0.00    -0.047 A 
ATOM     18  C   UNL     1       8.210   4.039 -13.387  1.00  0.00    +0.007 A 
ATOM     19  C   UNL     1       6.032   4.782 -12.648  1.00  0.00    +0.007 A 
ATOM     20  C   UNL     1       8.774   5.235 -12.936  1.00  0.00    +0.046 A 
ATOM     21  C   UNL     1       6.595   5.976 -12.195  1.00  0.00    +0.046 A 
ATOM     22  C   UNL     1       7.959   6.194 -12.343  1.00  0.00    +0.115 A 
BRANCH  22  23
ATOM     23  O   UNL     1       8.468   7.375 -11.889  1.00  0.00    -0.508 OA
ATOM     24  H   UNL     1       7.739   8.011 -11.798  1.00  0.00    +0.293 HD
ENDBRANCH  22  23
ENDBRANCH  16  17
ENDBRANCH   1  16
TORSDOF 8
ENDMDL
MODEL 6
REMARK VINA RESULT:    -7.431      3.698      8.732
REMARK INTER + INTRA:         -10.722
REMARK INTER:                 -10.145
REMARK INTRA:                  -0.576
REMARK UNBOUND:                -0.685
REMARK SMILES O=C(CCc1ccc(O)cc1)c1c(O)cc(O)cc1O
REMARK SMILES IDX 3 1 2 2 1 3 12 4 13 5 19 6 15 7 18 8 16 9 14 10 20 12 17 14
REMARK SMILES IDX 4 16 5 17 6 18 11 19 7 20 10 21 8 22 9 23
REMARK H PARENT 14 11 20 13 17 15 9 24
ROOT
ATOM      1  C   UNL     1       9.165   4.533 -12.378  1.00  0.00    +0.086 C 
ENDROOT
BRANCH   1   2
ATOM      2  C   UNL     1       8.671   5.605 -11.424  1.00  0.00    +0.170 C 
ATOM      3  O   UNL     1       7.478   5.901 -11.326  1.00  0.00    -0.294 OA
BRANCH   2   4
ATOM      4  C   UNL     1       9.643   6.359 -10.583  1.00  0.00    +0.101 A 
ATOM      5  C   UNL     1      10.567   7.206 -11.222  1.00  0.00    +0.133 A 
ATOM      6  C   UNL     1       9.673   6.277  -9.182  1.00  0.00    +0.133 A 
ATOM      7  C   UNL     1      11.524   7.905 -10.492  1.00  0.00    +0.093 A 
ATOM      8  C   UNL     1      10.630   6.981  -8.443  1.00  0.00    +0.093 A 
ATOM      9  C   UNL     1      11.553   7.784  -9.109  1.00  0.00    +0.123 A 
BRANCH   5  10
ATOM     10  O   UNL     1      10.586   7.401 -12.580  1.00  0.00    -0.507 OA
ATOM     11  H   UNL     1      11.038   6.627 -12.988  1.00  0.00    +0.293 HD
ENDBRANCH   5  10
BRANCH   6  12
ATOM     12  O   UNL     1       8.742   5.533  -8.509  1.00  0.00    -0.507 OA
ATOM     13  H   UNL     1       8.920   4.586  -8.638  1.00  0.00    +0.293 HD
ENDBRANCH   6  12
BRANCH   9  14
ATOM     14  O   UNL     1      12.505   8.486  -8.431  1.00  0.00    -0.508 OA
ATOM     15  H   UNL     1      13.239   7.898  -8.195  1.00  0.00    +0.293 HD
ENDBRANCH   9  14
ENDBRANCH   2   4
ENDBRANCH   1   2
BRANCH   1  16
ATOM     16  C   UNL     1       8.281   4.409 -13.620  1.00  0.00    +0.044 C 
BRANCH  16  17
ATOM     17  C   UNL     1       7.364   3.208 -13.559  1.00  0.00    -0.047 A 
ATOM     18  C   UNL     1       6.110   3.302 -12.938  1.00  0.00    +0.007 A 
ATOM     19  C   UNL     1       7.767   1.978 -14.097  1.00  0.00    +0.007 A 
ATOM     20  C   UNL     1       5.270   2.189 -12.863  1.00  0.00    +0.046 A 
ATOM     21  C   UNL     1       6.929   0.865 -14.019  1.00  0.00    +0.046 A 
ATOM     22  C   UNL     1       5.689   0.978 -13.405  1.00  0.00    +0.115 A 
BRANCH  22  23
ATOM     23  O   UNL     1       4.901  -0.134 -13.353  1.00  0.00    -0.508 OA
ATOM     24  H   UNL     1       4.360  -0.167 -14.159  1.00  0.00    +0.293 HD
ENDBRANCH  22  23
ENDBRANCH  16  17
ENDBRANCH   1  16
TORSDOF 8
ENDMDL
MODEL 7
REMARK VINA RESULT:    -7.188      6.067      9.565
REMARK INTER + INTRA:         -10.394
REMARK INTER:                  -9.725
REMARK INTRA:                  -0.668
REMARK UNBOUND:                -0.685
REMARK SMILES O=C(CCc1ccc(O)cc1)c1c(O)cc(O)cc1O
REMARK SMILES IDX 3 1 2 2 1 3 12 4 13 5 19 6 15 7 18 8 16 9 14 10 20 12 17 14
REMARK SMILES IDX 4 16 5 17 6 18 11 19 7 20 10 21 8 22 9 23
REMARK H PARENT 14 11 20 13 17 15 9 24
ROOT
ATOM      1  C   UNL     1       8.138   2.841 -14.539  1.00  0.00    +0.086 C 
ENDROOT
BRANCH   1   2
ATOM      2  C   UNL     1       7.934   1.354 -14.310  1.00  0.00    +0.170 C 
ATOM      3  O   UNL     1       8.872   0.590 -14.069  1.00  0.00    -0.294 OA
BRANCH   2   4
ATOM      4  C   UNL     1       6.568   0.768 -14.399  1.00  0.00    +0.101 A 
ATOM      5  C   UNL     1       6.303  -0.162 -15.421  1.00  0.00    +0.133 A 
ATOM      6  C   UNL     1       5.535   1.087 -13.503  1.00  0.00    +0.133 A 
ATOM      7  C   UNL     1       5.034  -0.713 -15.578  1.00  0.00    +0.093 A 
ATOM      8  C   UNL     1       4.259   0.531 -13.654  1.00  0.00    +0.093 A 
ATOM      9  C   UNL     1       4.020  -0.359 -14.697  1.00  0.00    +0.123 A 
BRANCH   5  10
ATOM     10  O   UNL     1       7.256  -0.583 -16.313  1.00  0.00    -0.507 OA
ATOM     11  H   UNL     1       7.393   0.138 -16.968  1.00  0.00    +0.293 HD
ENDBRANCH   5  10
BRANCH   6  12
ATOM     12  O   UNL     1       5.766   1.920 -12.443  1.00  0.00    -0.507 OA
ATOM     13  H   UNL     1       6.052   1.401 -11.671  1.00  0.00    +0.293 HD
ENDBRANCH   6  12
BRANCH   9  14
ATOM     14  O   UNL     1       2.793  -0.923 -14.885  1.00  0.00    -0.508 OA
ATOM     15  H   UNL     1       2.305  -0.427 -15.560  1.00  0.00    +0.293 HD
ENDBRANCH   9  14
ENDBRANCH   2   4
ENDBRANCH   1   2
BRANCH   1  16
ATOM     16  C   UNL     1       9.497   3.326 -14.027  1.00  0.00    +0.044 C 
BRANCH  16  17
ATOM     17  C   UNL     1       9.397   4.633 -13.275  1.00  0.00    -0.047 A 
ATOM     18  C   UNL     1       8.181   5.036 -12.705  1.00  0.00    +0.007 A 
ATOM     19  C   UNL     1      10.513   5.474 -13.160  1.00  0.00    +0.007 A 
ATOM     20  C   UNL     1       8.081   6.253 -12.027  1.00  0.00    +0.046 A 
ATOM     21  C   UNL     1      10.414   6.691 -12.485  1.00  0.00    +0.046 A 
ATOM     22  C   UNL     1       9.202   7.070 -11.923  1.00  0.00    +0.115 A 
BRANCH  22  23
ATOM     23  O   UNL     1       9.149   8.267 -11.270  1.00  0.00    -0.508 OA
ATOM     24  H   UNL     1       8.258   8.637 -11.375  1.00  0.00    +0.293 HD
ENDBRANCH  22  23
ENDBRANCH  16  17
ENDBRANCH   1  16
TORSDOF 8
ENDMDL
MODEL 8
REMARK VINA RESULT:    -7.155      7.060     10.636
REMARK INTER + INTRA:         -10.349
REMARK INTER:                  -9.395
REMARK INTRA:                  -0.954
REMARK UNBOUND:                -0.685
REMARK SMILES O=C(CCc1ccc(O)cc1)c1c(O)cc(O)cc1O
REMARK SMILES IDX 3 1 2 2 1 3 12 4 13 5 19 6 15 7 18 8 16 9 14 10 20 12 17 14
REMARK SMILES IDX 4 16 5 17 6 18 11 19 7 20 10 21 8 22 9 23
REMARK H PARENT 14 11 20 13 17 15 9 24
ROOT
ATOM      1  C   UNL     1       8.809   1.963 -15.775  1.00  0.00    +0.086 C 
ENDROOT
BRANCH   1   2
ATOM      2  C   UNL     1       8.409   0.500 -15.732  1.00  0.00    +0.170 C 
ATOM      3  O   UNL     1       9.241  -0.412 -15.747  1.00  0.00    -0.294 OA
BRANCH   2   4
ATOM      4  C   UNL     1       6.968   0.122 -15.695  1.00  0.00    +0.101 A 
ATOM      5  C   UNL     1       6.417  -0.296 -14.470  1.00  0.00    +0.133 A 
ATOM      6  C   UNL     1       6.131   0.175 -16.820  1.00  0.00    +0.133 A 
ATOM      7  C   UNL     1       5.087  -0.700 -14.383  1.00  0.00    +0.093 A 
ATOM      8  C   UNL     1       4.792  -0.225 -16.737  1.00  0.00    +0.093 A 
ATOM      9  C   UNL     1       4.286  -0.667 -15.517  1.00  0.00    +0.123 A 
BRANCH   5  10
ATOM     10  O   UNL     1       7.134  -0.330 -13.301  1.00  0.00    -0.507 OA
ATOM     11  H   UNL     1       6.888  -1.155 -12.823  1.00  0.00    +0.293 HD
ENDBRANCH   5  10
BRANCH   6  12
ATOM     12  O   UNL     1       6.598   0.653 -18.014  1.00  0.00    -0.507 OA
ATOM     13  H   UNL     1       7.231   1.375 -17.856  1.00  0.00    +0.293 HD
ENDBRANCH   6  12
BRANCH   9  14
ATOM     14  O   UNL     1       2.990  -1.068 -15.388  1.00  0.00    -0.508 OA
ATOM     15  H   UNL     1       2.603  -1.214 -16.266  1.00  0.00    +0.293 HD
ENDBRANCH   9  14
ENDBRANCH   2   4
ENDBRANCH   1   2
BRANCH   1  16
ATOM     16  C   UNL     1       9.504   2.413 -14.487  1.00  0.00    +0.044 C 
BRANCH  16  17
ATOM     17  C   UNL     1       8.684   3.418 -13.710  1.00  0.00    -0.047 A 
ATOM     18  C   UNL     1       9.313   4.430 -12.971  1.00  0.00    +0.007 A 
ATOM     19  C   UNL     1       7.284   3.336 -13.697  1.00  0.00    +0.007 A 
ATOM     20  C   UNL     1       8.558   5.347 -12.236  1.00  0.00    +0.046 A 
ATOM     21  C   UNL     1       6.530   4.250 -12.962  1.00  0.00    +0.046 A 
ATOM     22  C   UNL     1       7.171   5.248 -12.239  1.00  0.00    +0.115 A 
BRANCH  22  23
ATOM     23  O   UNL     1       6.395   6.123 -11.536  1.00  0.00    -0.508 OA
ATOM     24  H   UNL     1       5.625   6.359 -12.079  1.00  0.00    +0.293 HD
ENDBRANCH  22  23
ENDBRANCH  16  17
ENDBRANCH   1  16
TORSDOF 8
ENDMDL
MODEL 9
REMARK VINA RESULT:    -7.133      2.948      8.562
REMARK INTER + INTRA:         -10.320
REMARK INTER:                  -9.719
REMARK INTRA:                  -0.601
REMARK UNBOUND:                -0.685
REMARK SMILES O=C(CCc1ccc(O)cc1)c1c(O)cc(O)cc1O
REMARK SMILES IDX 3 1 2 2 1 3 12 4 13 5 19 6 15 7 18 8 16 9 14 10 20 12 17 14
REMARK SMILES IDX 4 16 5 17 6 18 11 19 7 20 10 21 8 22 9 23
REMARK H PARENT 14 11 20 13 17 15 9 24
ROOT
ATOM      1  C   UNL     1      10.216   5.938 -12.305  1.00  0.00    +0.086 C 
ENDROOT
BRANCH   1   2
ATOM      2  C   UNL     1       9.926   7.155 -11.445  1.00  0.00    +0.170 C 
ATOM      3  O   UNL     1       9.379   8.165 -11.895  1.00  0.00    -0.294 OA
BRANCH   2   4
ATOM      4  C   UNL     1      10.325   7.164 -10.010  1.00  0.00    +0.101 A 
ATOM      5  C   UNL     1       9.577   6.395  -9.101  1.00  0.00    +0.133 A 
ATOM      6  C   UNL     1      11.421   7.894  -9.523  1.00  0.00    +0.133 A 
ATOM      7  C   UNL     1       9.878   6.397  -7.741  1.00  0.00    +0.093 A 
ATOM      8  C   UNL     1      11.731   7.895  -8.157  1.00  0.00    +0.093 A 
ATOM      9  C   UNL     1      10.949   7.150  -7.278  1.00  0.00    +0.123 A 
BRANCH   5  10
ATOM     10  O   UNL     1       8.523   5.604  -9.482  1.00  0.00    -0.507 OA
ATOM     11  H   UNL     1       8.664   5.350 -10.422  1.00  0.00    +0.293 HD
ENDBRANCH   5  10
BRANCH   6  12
ATOM     12  O   UNL     1      12.230   8.590 -10.378  1.00  0.00    -0.507 OA
ATOM     13  H   UNL     1      13.148   8.280 -10.291  1.00  0.00    +0.293 HD
ENDBRANCH   6  12
BRANCH   9  14
ATOM     14  O   UNL     1      11.211   7.122  -5.941  1.00  0.00    -0.508 OA
ATOM     15  H   UNL     1      12.170   7.101  -5.796  1.00  0.00    +0.293 HD
ENDBRANCH   9  14
ENDBRANCH   2   4
ENDBRANCH   1   2
BRANCH   1  16
ATOM     16  C   UNL     1       8.961   5.407 -13.002  1.00  0.00    +0.044 C 
BRANCH  16  17
ATOM     17  C   UNL     1       9.172   4.037 -13.606  1.00  0.00    -0.047 A 
ATOM     18  C   UNL     1       8.082   3.191 -13.849  1.00  0.00    +0.007 A 
ATOM     19  C   UNL     1      10.465   3.585 -13.906  1.00  0.00    +0.007 A 
ATOM     20  C   UNL     1       8.277   1.917 -14.388  1.00  0.00    +0.046 A 
ATOM     21  C   UNL     1      10.661   2.312 -14.443  1.00  0.00    +0.046 A 
ATOM     22  C   UNL     1       9.568   1.489 -14.681  1.00  0.00    +0.115 A 
BRANCH  22  23
ATOM     23  O   UNL     1       9.804   0.254 -15.208  1.00  0.00    -0.508 OA
ATOM     24  H   UNL     1      10.173   0.364 -16.100  1.00  0.00    +0.293 HD
ENDBRANCH  22  23
ENDBRANCH  16  17
ENDBRANCH   1  16
TORSDOF 8
ENDMDL
