REMARK SMILES O=C(CCc1ccc(O)cc1)c1c(O)cc(O)cc1O
REMARK SMILES IDX 3 1 2 2 1 3 12 4 13 5 19 6 15 7 18 8 16 9 14 10 20 12 17 14
REMARK SMILES IDX 4 16 5 17 6 18 11 19 7 20 10 21 8 22 9 23
REMARK H PARENT 14 11 20 13 17 15 9 24
ROOT
ATOM      1  C   UNL     1       0.573  -1.669   0.994  1.00  0.00    +0.086 C 
ENDROOT
BRANCH   1   2
ATOM      2  C   UNL     1      -0.352  -1.611  -0.208  1.00  0.00    +0.170 C 
ATOM      3  O   UNL     1      -0.034  -2.073  -1.307  1.00  0.00    -0.294 OA
BRANCH   2   4
ATOM      4  C   UNL     1      -1.686  -0.958  -0.091  1.00  0.00    +0.101 A 
ATOM      5  C   UNL     1      -2.242  -0.361  -1.237  1.00  0.00    +0.133 A 
ATOM      6  C   UNL     1      -2.421  -0.921   1.104  1.00  0.00    +0.133 A 
ATOM      7  C   UNL     1      -3.467   0.299  -1.179  1.00  0.00    +0.093 A 
ATOM      8  C   UNL     1      -3.655  -0.263   1.166  1.00  0.00    +0.093 A 
ATOM      9  C   UNL     1      -4.162   0.348   0.022  1.00  0.00    +0.123 A 
BRANCH   5  10
ATOM     10  O   UNL     1      -1.632  -0.390  -2.465  1.00  0.00    -0.507 OA
ATOM     11  H   UNL     1      -0.892  -1.037  -2.417  1.00  0.00    +0.293 HD
ENDBRANCH   5  10
BRANCH   6  12
ATOM     12  O   UNL     1      -1.962  -1.559   2.224  1.00  0.00    -0.507 OA
ATOM     13  H   UNL     1      -2.620  -1.489   2.937  1.00  0.00    +0.293 HD
ENDBRANCH   6  12
BRANCH   9  14
ATOM     14  O   UNL     1      -5.358   1.002   0.035  1.00  0.00    -0.508 OA
ATOM     15  H   UNL     1      -5.738   0.971   0.927  1.00  0.00    +0.293 HD
ENDBRANCH   9  14
ENDBRANCH   2   4
ENDBRANCH   1   2
BRANCH   1  16
ATOM     16  C   UNL     1       2.049  -1.612   0.594  1.00  0.00    +0.044 C 
BRANCH  16  17
ATOM     17  C   UNL     1       2.481  -0.224   0.178  1.00  0.00    -0.047 A 
ATOM     18  C   UNL     1       2.847   0.726   1.142  1.00  0.00    +0.007 A 
ATOM     19  C   UNL     1       2.495   0.140  -1.176  1.00  0.00    +0.007 A 
ATOM     20  C   UNL     1       3.227   2.015   0.761  1.00  0.00    +0.046 A 
ATOM     21  C   UNL     1       2.872   1.428  -1.557  1.00  0.00    +0.046 A 
ATOM     22  C   UNL     1       3.236   2.354  -0.588  1.00  0.00    +0.115 A 
BRANCH  22  23
ATOM     23  O   UNL     1       3.600   3.601  -1.004  1.00  0.00    -0.508 OA
ATOM     24  H   UNL     1       3.827   4.133  -0.224  1.00  0.00    +0.293 HD
ENDBRANCH  22  23
ENDBRANCH  16  17
ENDBRANCH   1  16
TORSDOF 8
