MODEL 1
REMARK VINA RESULT:    -9.524      0.000      0.000
REMARK INTER + INTRA:         -11.174
REMARK INTER:                 -10.637
REMARK INTRA:                  -0.536
REMARK UNBOUND:                -0.536
REMARK SMILES Brc1cccc(Nc2ncnc3cc4ccccc4cc23)c1
REMARK SMILES IDX 1 1 2 2 3 3 4 4 5 5 6 6 22 7 7 8 8 10 9 11 21 12 10 13 20 14
REMARK SMILES IDX 12 15 11 16 19 17 13 18 18 19 14 20 17 21 15 22 16 23
REMARK H PARENT 7 9
ROOT
ATOM      1 Br   UNL     1       9.547   7.048  -6.988  1.00  0.00    -0.051 Br
ATOM      2  C   UNL     1      10.675   7.409  -8.463  1.00  0.00    +0.020 A 
ATOM      3  C   UNL     1      11.933   7.964  -8.247  1.00  0.00    +0.016 A 
ATOM      4  C   UNL     1      12.751   8.249  -9.337  1.00  0.00    +0.003 A 
ATOM      5  C   UNL     1      12.310   7.965 -10.633  1.00  0.00    +0.026 A 
ATOM      6  C   UNL     1      11.059   7.370 -10.862  1.00  0.00    +0.041 A 
ATOM      7  C   UNL     1      10.234   7.126  -9.757  1.00  0.00    +0.041 A 
ENDROOT
BRANCH   6   8
ATOM      8  N   UNL     1      10.633   7.163 -12.195  1.00  0.00    -0.340 N 
ATOM      9  H   UNL     1      10.791   7.986 -12.767  1.00  0.00    +0.168 HD
BRANCH   8  10
ATOM     10  C   UNL     1      10.810   6.009 -13.006  1.00  0.00    +0.141 A 
ATOM     11  N   UNL     1      12.005   5.783 -13.580  1.00  0.00    -0.219 NA
ATOM     12  C   UNL     1       9.713   5.142 -13.201  1.00  0.00    +0.044 A 
ATOM     13  C   UNL     1      12.104   4.708 -14.365  1.00  0.00    +0.224 A 
ATOM     14  C   UNL     1       8.436   5.292 -12.602  1.00  0.00    +0.023 A 
ATOM     15  C   UNL     1       9.948   4.055 -14.053  1.00  0.00    +0.076 A 
ATOM     16  N   UNL     1      11.128   3.835 -14.637  1.00  0.00    -0.236 NA
ATOM     17  C   UNL     1       7.396   4.387 -12.858  1.00  0.00    -0.018 A 
ATOM     18  C   UNL     1       8.911   3.164 -14.303  1.00  0.00    +0.038 A 
ATOM     19  C   UNL     1       6.129   4.531 -12.270  1.00  0.00    +0.009 A 
ATOM     20  C   UNL     1       7.637   3.307 -13.727  1.00  0.00    -0.016 A 
ATOM     21  C   UNL     1       5.110   3.616 -12.543  1.00  0.00    +0.001 A 
ATOM     22  C   UNL     1       6.603   2.394 -13.992  1.00  0.00    +0.009 A 
ATOM     23  C   UNL     1       5.347   2.550 -13.404  1.00  0.00    +0.001 A 
ENDBRANCH   8  10
ENDBRANCH   6   8
TORSDOF 2
ENDMDL
MODEL 2
REMARK VINA RESULT:    -9.337      2.379      6.969
REMARK INTER + INTRA:         -10.965
REMARK INTER:                 -10.918
REMARK INTRA:                  -0.047
REMARK UNBOUND:                -0.536
REMARK SMILES Brc1cccc(Nc2ncnc3cc4ccccc4cc23)c1
REMARK SMILES IDX 1 1 2 2 3 3 4 4 5 5 6 6 22 7 7 8 8 10 9 11 21 12 10 13 20 14
REMARK SMILES IDX 12 15 11 16 19 17 13 18 18 19 14 20 17 21 15 22 16 23
REMARK H PARENT 7 9
ROOT
ATOM      1 Br   UNL     1       8.531   2.176 -14.439  1.00  0.00    -0.051 Br
ATOM      2  C   UNL     1       7.651   3.566 -13.504  1.00  0.00    +0.020 A 
ATOM      3  C   UNL     1       6.272   3.509 -13.326  1.00  0.00    +0.016 A 
ATOM      4  C   UNL     1       5.625   4.545 -12.657  1.00  0.00    +0.003 A 
ATOM      5  C   UNL     1       6.365   5.623 -12.161  1.00  0.00    +0.026 A 
ATOM      6  C   UNL     1       7.761   5.674 -12.300  1.00  0.00    +0.041 A 
ATOM      7  C   UNL     1       8.390   4.643 -13.009  1.00  0.00    +0.041 A 
ENDROOT
BRANCH   6   8
ATOM      8  N   UNL     1       8.454   6.817 -11.838  1.00  0.00    -0.340 N 
ATOM      9  H   UNL     1       8.068   7.156 -10.963  1.00  0.00    +0.168 HD
BRANCH   8  10
ATOM     10  C   UNL     1       9.856   7.055 -11.835  1.00  0.00    +0.141 A 
ATOM     11  N   UNL     1      10.575   6.774 -12.937  1.00  0.00    -0.219 NA
ATOM     12  C   UNL     1      10.456   7.563 -10.663  1.00  0.00    +0.044 A 
ATOM     13  C   UNL     1      11.892   6.977 -12.866  1.00  0.00    +0.224 A 
ATOM     14  C   UNL     1       9.762   7.918  -9.477  1.00  0.00    +0.023 A 
ATOM     15  C   UNL     1      11.846   7.724 -10.718  1.00  0.00    +0.076 A 
ATOM     16  N   UNL     1      12.565   7.432 -11.804  1.00  0.00    -0.236 NA
ATOM     17  C   UNL     1      10.438   8.409  -8.352  1.00  0.00    -0.018 A 
ATOM     18  C   UNL     1      12.509   8.208  -9.597  1.00  0.00    +0.038 A 
ATOM     19  C   UNL     1       9.758   8.761  -7.175  1.00  0.00    +0.009 A 
ATOM     20  C   UNL     1      11.837   8.553  -8.412  1.00  0.00    -0.016 A 
ATOM     21  C   UNL     1      10.456   9.246  -6.067  1.00  0.00    +0.001 A 
ATOM     22  C   UNL     1      12.526   9.042  -7.290  1.00  0.00    +0.009 A 
ATOM     23  C   UNL     1      11.839   9.385  -6.125  1.00  0.00    +0.001 A 
ENDBRANCH   8  10
ENDBRANCH   6   8
TORSDOF 2
ENDMDL
MODEL 3
REMARK VINA RESULT:    -9.095      4.245      7.291
REMARK INTER + INTRA:         -10.694
REMARK INTER:                 -10.168
REMARK INTRA:                  -0.527
REMARK UNBOUND:                -0.536
REMARK SMILES Brc1cccc(Nc2ncnc3cc4ccccc4cc23)c1
REMARK SMILES IDX 1 1 2 2 3 3 4 4 5 5 6 6 22 7 7 8 8 10 9 11 21 12 10 13 20 14
REMARK SMILES IDX 12 15 11 16 19 17 13 18 18 19 14 20 17 21 15 22 16 23
REMARK H PARENT 7 9
ROOT
ATOM      1 Br   UNL     1      12.628   3.603 -17.540  1.00  0.00    -0.051 Br
ATOM      2  C   UNL     1      11.679   1.983 -17.304  1.00  0.00    +0.020 A 
ATOM      3  C   UNL     1      11.650   1.048 -18.335  1.00  0.00    +0.016 A 
ATOM      4  C   UNL     1      10.933  -0.133 -18.166  1.00  0.00    +0.003 A 
ATOM      5  C   UNL     1      10.262  -0.375 -16.963  1.00  0.00    +0.026 A 
ATOM      6  C   UNL     1      10.315   0.543 -15.902  1.00  0.00    +0.041 A 
ATOM      7  C   UNL     1      11.009   1.742 -16.103  1.00  0.00    +0.041 A 
ENDROOT
BRANCH   6   8
ATOM      8  N   UNL     1       9.566   0.280 -14.731  1.00  0.00    -0.340 N 
ATOM      9  H   UNL     1      10.069   0.562 -13.897  1.00  0.00    +0.168 HD
BRANCH   8  10
ATOM     10  C   UNL     1       8.176   0.486 -14.511  1.00  0.00    +0.141 A 
ATOM     11  N   UNL     1       7.310  -0.504 -14.794  1.00  0.00    -0.219 NA
ATOM     12  C   UNL     1       7.745   1.737 -14.020  1.00  0.00    +0.044 A 
ATOM     13  C   UNL     1       6.014  -0.243 -14.608  1.00  0.00    +0.224 A 
ATOM     14  C   UNL     1       8.597   2.814 -13.665  1.00  0.00    +0.023 A 
ATOM     15  C   UNL     1       6.359   1.883 -13.877  1.00  0.00    +0.076 A 
ATOM     16  N   UNL     1       5.495   0.908 -14.170  1.00  0.00    -0.236 NA
ATOM     17  C   UNL     1       8.083   4.029 -13.192  1.00  0.00    -0.018 A 
ATOM     18  C   UNL     1       5.858   3.091 -13.410  1.00  0.00    +0.038 A 
ATOM     19  C   UNL     1       8.921   5.100 -12.840  1.00  0.00    +0.009 A 
ATOM     20  C   UNL     1       6.689   4.172 -13.066  1.00  0.00    -0.016 A 
ATOM     21  C   UNL     1       8.384   6.300 -12.373  1.00  0.00    +0.001 A 
ATOM     22  C   UNL     1       6.162   5.385 -12.595  1.00  0.00    +0.009 A 
ATOM     23  C   UNL     1       7.005   6.443 -12.251  1.00  0.00    +0.001 A 
ENDBRANCH   8  10
ENDBRANCH   6   8
TORSDOF 2
ENDMDL
MODEL 4
REMARK VINA RESULT:    -9.076      4.751      8.335
REMARK INTER + INTRA:         -10.674
REMARK INTER:                 -10.123
REMARK INTRA:                  -0.550
REMARK UNBOUND:                -0.536
REMARK SMILES Brc1cccc(Nc2ncnc3cc4ccccc4cc23)c1
REMARK SMILES IDX 1 1 2 2 3 3 4 4 5 5 6 6 22 7 7 8 8 10 9 11 21 12 10 13 20 14
REMARK SMILES IDX 12 15 11 16 19 17 13 18 18 19 14 20 17 21 15 22 16 23
REMARK H PARENT 7 9
ROOT
ATOM      1 Br   UNL     1       5.032  -0.524 -19.653  1.00  0.00    -0.051 Br
ATOM      2  C   UNL     1       4.880  -0.666 -17.773  1.00  0.00    +0.020 A 
ATOM      3  C   UNL     1       3.625  -0.849 -17.197  1.00  0.00    +0.016 A 
ATOM      4  C   UNL     1       3.514  -0.931 -15.812  1.00  0.00    +0.003 A 
ATOM      5  C   UNL     1       4.659  -0.843 -15.014  1.00  0.00    +0.026 A 
ATOM      6  C   UNL     1       5.934  -0.698 -15.584  1.00  0.00    +0.041 A 
ATOM      7  C   UNL     1       6.023  -0.578 -16.976  1.00  0.00    +0.041 A 
ENDROOT
BRANCH   6   8
ATOM      8  N   UNL     1       7.052  -0.549 -14.731  1.00  0.00    -0.340 N 
ATOM      9  H   UNL     1       7.359  -1.442 -14.361  1.00  0.00    +0.168 HD
BRANCH   8  10
ATOM     10  C   UNL     1       8.195   0.279 -14.913  1.00  0.00    +0.141 A 
ATOM     11  N   UNL     1       9.285  -0.225 -15.517  1.00  0.00    -0.219 NA
ATOM     12  C   UNL     1       8.154   1.606 -14.432  1.00  0.00    +0.044 A 
ATOM     13  C   UNL     1      10.343   0.582 -15.625  1.00  0.00    +0.224 A 
ATOM     14  C   UNL     1       7.031   2.219 -13.819  1.00  0.00    +0.023 A 
ATOM     15  C   UNL     1       9.332   2.344 -14.601  1.00  0.00    +0.076 A 
ATOM     16  N   UNL     1      10.422   1.843 -15.187  1.00  0.00    -0.236 NA
ATOM     17  C   UNL     1       7.080   3.543 -13.361  1.00  0.00    -0.018 A 
ATOM     18  C   UNL     1       9.372   3.655 -14.142  1.00  0.00    +0.038 A 
ATOM     19  C   UNL     1       5.973   4.157 -12.752  1.00  0.00    +0.009 A 
ATOM     20  C   UNL     1       8.273   4.272 -13.521  1.00  0.00    -0.016 A 
ATOM     21  C   UNL     1       6.048   5.476 -12.303  1.00  0.00    +0.001 A 
ATOM     22  C   UNL     1       8.334   5.599 -13.065  1.00  0.00    +0.009 A 
ATOM     23  C   UNL     1       7.228   6.196 -12.458  1.00  0.00    +0.001 A 
ENDBRANCH   8  10
ENDBRANCH   6   8
TORSDOF 2
ENDMDL
MODEL 5
REMARK VINA RESULT:    -8.977      4.527      7.538
REMARK INTER + INTRA:         -10.563
REMARK INTER:                 -10.021
REMARK INTRA:                  -0.542
REMARK UNBOUND:                -0.536
REMARK SMILES Brc1cccc(Nc2ncnc3cc4ccccc4cc23)c1
REMARK SMILES IDX 1 1 2 2 3 3 4 4 5 5 6 6 22 7 7 8 8 10 9 11 21 12 10 13 20 14
REMARK SMILES IDX 12 15 11 16 19 17 13 18 18 19 14 20 17 21 15 22 16 23
REMARK H PARENT 7 9
ROOT
ATOM      1 Br   UNL     1       5.481   3.696 -12.801  1.00  0.00    -0.051 Br
ATOM      2  C   UNL     1       6.006   1.997 -13.446  1.00  0.00    +0.020 A 
ATOM      3  C   UNL     1       5.046   1.009 -13.639  1.00  0.00    +0.016 A 
ATOM      4  C   UNL     1       5.439  -0.247 -14.093  1.00  0.00    +0.003 A 
ATOM      5  C   UNL     1       6.787  -0.501 -14.362  1.00  0.00    +0.026 A 
ATOM      6  C   UNL     1       7.761   0.499 -14.208  1.00  0.00    +0.041 A 
ATOM      7  C   UNL     1       7.353   1.744 -13.715  1.00  0.00    +0.041 A 
ENDROOT
BRANCH   6   8
ATOM      8  N   UNL     1       9.119   0.173 -14.432  1.00  0.00    -0.340 N 
ATOM      9  H   UNL     1       9.390  -0.660 -13.920  1.00  0.00    +0.168 HD
BRANCH   8  10
ATOM     10  C   UNL     1       9.842   0.205 -15.657  1.00  0.00    +0.141 A 
ATOM     11  N   UNL     1       9.761  -0.842 -16.497  1.00  0.00    -0.219 NA
ATOM     12  C   UNL     1      10.642   1.332 -15.943  1.00  0.00    +0.044 A 
ATOM     13  C   UNL     1      10.493  -0.778 -17.612  1.00  0.00    +0.224 A 
ATOM     14  C   UNL     1      10.749   2.487 -15.126  1.00  0.00    +0.023 A 
ATOM     15  C   UNL     1      11.364   1.270 -17.141  1.00  0.00    +0.076 A 
ATOM     16  N   UNL     1      11.299   0.226 -17.972  1.00  0.00    -0.236 NA
ATOM     17  C   UNL     1      11.576   3.561 -15.483  1.00  0.00    -0.018 A 
ATOM     18  C   UNL     1      12.183   2.337 -17.486  1.00  0.00    +0.038 A 
ATOM     19  C   UNL     1      11.688   4.708 -14.679  1.00  0.00    +0.009 A 
ATOM     20  C   UNL     1      12.309   3.483 -16.681  1.00  0.00    -0.016 A 
ATOM     21  C   UNL     1      12.520   5.763 -15.056  1.00  0.00    +0.001 A 
ATOM     22  C   UNL     1      13.143   4.552 -17.048  1.00  0.00    +0.009 A 
ATOM     23  C   UNL     1      13.248   5.684 -16.239  1.00  0.00    +0.001 A 
ENDBRANCH   8  10
ENDBRANCH   6   8
TORSDOF 2
ENDMDL
MODEL 6
REMARK VINA RESULT:    -8.882      1.749      3.154
REMARK INTER + INTRA:         -10.457
REMARK INTER:                 -10.185
REMARK INTRA:                  -0.272
REMARK UNBOUND:                -0.536
REMARK SMILES Brc1cccc(Nc2ncnc3cc4ccccc4cc23)c1
REMARK SMILES IDX 1 1 2 2 3 3 4 4 5 5 6 6 22 7 7 8 8 10 9 11 21 12 10 13 20 14
REMARK SMILES IDX 12 15 11 16 19 17 13 18 18 19 14 20 17 21 15 22 16 23
REMARK H PARENT 7 9
ROOT
ATOM      1 Br   UNL     1      10.170   7.483  -7.217  1.00  0.00    -0.051 Br
ATOM      2  C   UNL     1      10.972   7.547  -8.930  1.00  0.00    +0.020 A 
ATOM      3  C   UNL     1      12.256   8.066  -9.068  1.00  0.00    +0.016 A 
ATOM      4  C   UNL     1      12.834   8.132 -10.333  1.00  0.00    +0.003 A 
ATOM      5  C   UNL     1      12.128   7.667 -11.447  1.00  0.00    +0.026 A 
ATOM      6  C   UNL     1      10.847   7.107 -11.316  1.00  0.00    +0.041 A 
ATOM      7  C   UNL     1      10.266   7.084 -10.042  1.00  0.00    +0.041 A 
ENDROOT
BRANCH   6   8
ATOM      8  N   UNL     1      10.151   6.712 -12.482  1.00  0.00    -0.340 N 
ATOM      9  H   UNL     1      10.751   6.198 -13.117  1.00  0.00    +0.168 HD
BRANCH   8  10
ATOM     10  C   UNL     1       8.832   6.188 -12.584  1.00  0.00    +0.141 A 
ATOM     11  N   UNL     1       7.794   6.926 -12.150  1.00  0.00    -0.219 NA
ATOM     12  C   UNL     1       8.656   4.895 -13.121  1.00  0.00    +0.044 A 
ATOM     13  C   UNL     1       6.584   6.370 -12.232  1.00  0.00    +0.224 A 
ATOM     14  C   UNL     1       9.693   4.073 -13.632  1.00  0.00    +0.023 A 
ATOM     15  C   UNL     1       7.336   4.426 -13.143  1.00  0.00    +0.076 A 
ATOM     16  N   UNL     1       6.304   5.149 -12.700  1.00  0.00    -0.236 NA
ATOM     17  C   UNL     1       9.430   2.793 -14.141  1.00  0.00    -0.018 A 
ATOM     18  C   UNL     1       7.084   3.156 -13.647  1.00  0.00    +0.038 A 
ATOM     19  C   UNL     1      10.453   1.973 -14.646  1.00  0.00    +0.009 A 
ATOM     20  C   UNL     1       8.103   2.325 -14.145  1.00  0.00    -0.016 A 
ATOM     21  C   UNL     1      10.164   0.703 -15.146  1.00  0.00    +0.001 A 
ATOM     22  C   UNL     1       7.827   1.045 -14.651  1.00  0.00    +0.009 A 
ATOM     23  C   UNL     1       8.853   0.239 -15.147  1.00  0.00    +0.001 A 
ENDBRANCH   8  10
ENDBRANCH   6   8
TORSDOF 2
ENDMDL
MODEL 7
REMARK VINA RESULT:    -8.699      4.504      7.731
REMARK INTER + INTRA:         -10.252
REMARK INTER:                  -9.832
REMARK INTRA:                  -0.420
REMARK UNBOUND:                -0.536
REMARK SMILES Brc1cccc(Nc2ncnc3cc4ccccc4cc23)c1
REMARK SMILES IDX 1 1 2 2 3 3 4 4 5 5 6 6 22 7 7 8 8 10 9 11 21 12 10 13 20 14
REMARK SMILES IDX 12 15 11 16 19 17 13 18 18 19 14 20 17 21 15 22 16 23
REMARK H PARENT 7 9
ROOT
ATOM      1 Br   UNL     1       4.250  -0.743 -17.149  1.00  0.00    -0.051 Br
ATOM      2  C   UNL     1       5.096  -0.224 -15.539  1.00  0.00    +0.020 A 
ATOM      3  C   UNL     1       4.322   0.178 -14.455  1.00  0.00    +0.016 A 
ATOM      4  C   UNL     1       4.949   0.580 -13.278  1.00  0.00    +0.003 A 
ATOM      5  C   UNL     1       6.345   0.564 -13.192  1.00  0.00    +0.026 A 
ATOM      6  C   UNL     1       7.136   0.124 -14.265  1.00  0.00    +0.041 A 
ATOM      7  C   UNL     1       6.490  -0.240 -15.453  1.00  0.00    +0.041 A 
ENDROOT
BRANCH   6   8
ATOM      8  N   UNL     1       8.544   0.189 -14.149  1.00  0.00    -0.340 N 
ATOM      9  H   UNL     1       8.911  -0.608 -13.640  1.00  0.00    +0.168 HD
BRANCH   8  10
ATOM     10  C   UNL     1       9.492   0.568 -15.139  1.00  0.00    +0.141 A 
ATOM     11  N   UNL     1       9.788  -0.289 -16.132  1.00  0.00    -0.219 NA
ATOM     12  C   UNL     1      10.112   1.832 -15.035  1.00  0.00    +0.044 A 
ATOM     13  C   UNL     1      10.714   0.101 -17.010  1.00  0.00    +0.224 A 
ATOM     14  C   UNL     1       9.827   2.803 -14.041  1.00  0.00    +0.023 A 
ATOM     15  C   UNL     1      11.071   2.116 -16.015  1.00  0.00    +0.076 A 
ATOM     16  N   UNL     1      11.378   1.261 -16.995  1.00  0.00    -0.236 NA
ATOM     17  C   UNL     1      10.498   4.034 -14.006  1.00  0.00    -0.018 A 
ATOM     18  C   UNL     1      11.733   3.336 -15.972  1.00  0.00    +0.038 A 
ATOM     19  C   UNL     1      10.222   4.999 -13.024  1.00  0.00    +0.009 A 
ATOM     20  C   UNL     1      11.470   4.303 -14.986  1.00  0.00    -0.016 A 
ATOM     21  C   UNL     1      10.905   6.216 -13.010  1.00  0.00    +0.001 A 
ATOM     22  C   UNL     1      12.150   5.532 -14.961  1.00  0.00    +0.009 A 
ATOM     23  C   UNL     1      11.869   6.481 -13.978  1.00  0.00    +0.001 A 
ENDBRANCH   8  10
ENDBRANCH   6   8
TORSDOF 2
ENDMDL
MODEL 8
REMARK VINA RESULT:    -8.610      1.868      2.733
REMARK INTER + INTRA:         -10.153
REMARK INTER:                  -9.673
REMARK INTRA:                  -0.480
REMARK UNBOUND:                -0.536
REMARK SMILES Brc1cccc(Nc2ncnc3cc4ccccc4cc23)c1
REMARK SMILES IDX 1 1 2 2 3 3 4 4 5 5 6 6 22 7 7 8 8 10 9 11 21 12 10 13 20 14
REMARK SMILES IDX 12 15 11 16 19 17 13 18 18 19 14 20 17 21 15 22 16 23
REMARK H PARENT 7 9
ROOT
ATOM      1 Br   UNL     1      11.687   8.757  -9.617  1.00  0.00    -0.051 Br
ATOM      2  C   UNL     1      10.541   7.268  -9.840  1.00  0.00    +0.020 A 
ATOM      3  C   UNL     1      10.124   6.549  -8.723  1.00  0.00    +0.016 A 
ATOM      4  C   UNL     1       9.299   5.441  -8.893  1.00  0.00    +0.003 A 
ATOM      5  C   UNL     1       8.887   5.068 -10.176  1.00  0.00    +0.026 A 
ATOM      6  C   UNL     1       9.269   5.808 -11.307  1.00  0.00    +0.041 A 
ATOM      7  C   UNL     1      10.130   6.897 -11.121  1.00  0.00    +0.041 A 
ENDROOT
BRANCH   6   8
ATOM      8  N   UNL     1       8.878   5.352 -12.587  1.00  0.00    -0.340 N 
ATOM      9  H   UNL     1       8.624   6.123 -13.195  1.00  0.00    +0.168 HD
BRANCH   8  10
ATOM     10  C   UNL     1       9.476   4.332 -13.379  1.00  0.00    +0.141 A 
ATOM     11  N   UNL     1      10.757   4.466 -13.769  1.00  0.00    -0.219 NA
ATOM     12  C   UNL     1       8.696   3.216 -13.749  1.00  0.00    +0.044 A 
ATOM     13  C   UNL     1      11.254   3.500 -14.544  1.00  0.00    +0.224 A 
ATOM     14  C   UNL     1       7.355   2.986 -13.348  1.00  0.00    +0.023 A 
ATOM     15  C   UNL     1       9.336   2.279 -14.570  1.00  0.00    +0.076 A 
ATOM     16  N   UNL     1      10.602   2.415 -14.972  1.00  0.00    -0.236 NA
ATOM     17  C   UNL     1       6.648   1.851 -13.770  1.00  0.00    -0.018 A 
ATOM     18  C   UNL     1       8.628   1.158 -14.986  1.00  0.00    +0.038 A 
ATOM     19  C   UNL     1       5.320   1.618 -13.378  1.00  0.00    +0.009 A 
ATOM     20  C   UNL     1       7.295   0.923 -14.607  1.00  0.00    -0.016 A 
ATOM     21  C   UNL     1       4.638   0.481 -13.813  1.00  0.00    +0.001 A 
ATOM     22  C   UNL     1       6.597  -0.217 -15.038  1.00  0.00    +0.009 A 
ATOM     23  C   UNL     1       5.276  -0.435 -14.644  1.00  0.00    +0.001 A 
ENDBRANCH   8  10
ENDBRANCH   6   8
TORSDOF 2
ENDMDL
MODEL 9
REMARK VINA RESULT:    -8.296      2.739      6.618
REMARK INTER + INTRA:          -9.803
REMARK INTER:                  -9.563
REMARK INTRA:                  -0.240
REMARK UNBOUND:                -0.536
REMARK SMILES Brc1cccc(Nc2ncnc3cc4ccccc4cc23)c1
REMARK SMILES IDX 1 1 2 2 3 3 4 4 5 5 6 6 22 7 7 8 8 10 9 11 21 12 10 13 20 14
REMARK SMILES IDX 12 15 11 16 19 17 13 18 18 19 14 20 17 21 15 22 16 23
REMARK H PARENT 7 9
ROOT
ATOM      1 Br   UNL     1       4.935   0.357 -13.911  1.00  0.00    -0.051 Br
ATOM      2  C   UNL     1       6.669   1.067 -14.167  1.00  0.00    +0.020 A 
ATOM      3  C   UNL     1       7.724   0.210 -14.470  1.00  0.00    +0.016 A 
ATOM      4  C   UNL     1       9.004   0.734 -14.636  1.00  0.00    +0.003 A 
ATOM      5  C   UNL     1       9.215   2.110 -14.511  1.00  0.00    +0.026 A 
ATOM      6  C   UNL     1       8.153   2.989 -14.244  1.00  0.00    +0.041 A 
ATOM      7  C   UNL     1       6.881   2.441 -14.042  1.00  0.00    +0.041 A 
ENDROOT
BRANCH   6   8
ATOM      8  N   UNL     1       8.431   4.364 -14.063  1.00  0.00    -0.340 N 
ATOM      9  H   UNL     1       8.091   4.697 -13.167  1.00  0.00    +0.168 HD
BRANCH   8  10
ATOM     10  C   UNL     1       9.623   5.071 -14.384  1.00  0.00    +0.141 A 
ATOM     11  N   UNL     1      10.120   4.992 -15.631  1.00  0.00    -0.219 NA
ATOM     12  C   UNL     1      10.262   5.819 -13.372  1.00  0.00    +0.044 A 
ATOM     13  C   UNL     1      11.263   5.641 -15.867  1.00  0.00    +0.224 A 
ATOM     14  C   UNL     1       9.781   5.979 -12.046  1.00  0.00    +0.023 A 
ATOM     15  C   UNL     1      11.456   6.446 -13.748  1.00  0.00    +0.076 A 
ATOM     16  N   UNL     1      11.961   6.359 -14.982  1.00  0.00    -0.236 NA
ATOM     17  C   UNL     1      10.485   6.735 -11.099  1.00  0.00    -0.018 A 
ATOM     18  C   UNL     1      12.149   7.191 -12.802  1.00  0.00    +0.038 A 
ATOM     19  C   UNL     1      10.016   6.897  -9.785  1.00  0.00    +0.009 A 
ATOM     20  C   UNL     1      11.692   7.348 -11.482  1.00  0.00    -0.016 A 
ATOM     21  C   UNL     1      10.736   7.654  -8.860  1.00  0.00    +0.001 A 
ATOM     22  C   UNL     1      12.407   8.107 -10.541  1.00  0.00    +0.009 A 
ATOM     23  C   UNL     1      11.932   8.257  -9.238  1.00  0.00    +0.001 A 
ENDBRANCH   8  10
ENDBRANCH   6   8
TORSDOF 2
ENDMDL
