REMARK SMILES Brc1cccc(Nc2ncnc3cc4ccccc4cc23)c1
REMARK SMILES IDX 1 1 2 2 3 3 4 4 5 5 6 6 22 7 7 8 8 10 9 11 21 12 10 13 20 14
REMARK SMILES IDX 12 15 11 16 19 17 13 18 18 19 14 20 17 21 15 22 16 23
REMARK H PARENT 7 9
ROOT
ATOM      1 Br   UNL     1      -6.039   1.865   1.468  1.00  0.00    -0.051 Br
ATOM      2  C   UNL     1      -5.054   0.424   0.738  1.00  0.00    +0.020 A 
ATOM      3  C   UNL     1      -5.710  -0.758   0.406  1.00  0.00    +0.016 A 
ATOM      4  C   UNL     1      -4.978  -1.824  -0.110  1.00  0.00    +0.003 A 
ATOM      5  C   UNL     1      -3.599  -1.695  -0.302  1.00  0.00    +0.026 A 
ATOM      6  C   UNL     1      -2.932  -0.495  -0.007  1.00  0.00    +0.041 A 
ATOM      7  C   UNL     1      -3.677   0.553   0.547  1.00  0.00    +0.041 A 
ENDROOT
BRANCH   6   8
ATOM      8  N   UNL     1      -1.527  -0.438  -0.158  1.00  0.00    -0.340 N 
ATOM      9  H   UNL     1      -1.185  -1.195  -0.740  1.00  0.00    +0.168 HD
BRANCH   8  10
ATOM     10  C   UNL     1      -0.711   0.706  -0.380  1.00  0.00    +0.141 A 
ATOM     11  N   UNL     1      -1.286   1.863  -0.754  1.00  0.00    -0.219 NA
ATOM     12  C   UNL     1       0.686   0.584  -0.220  1.00  0.00    +0.044 A 
ATOM     13  C   UNL     1      -0.470   2.893  -0.989  1.00  0.00    +0.224 A 
ATOM     14  C   UNL     1       1.361  -0.589   0.206  1.00  0.00    +0.023 A 
ATOM     15  C   UNL     1       1.428   1.737  -0.505  1.00  0.00    +0.076 A 
ATOM     16  N   UNL     1       0.863   2.884  -0.891  1.00  0.00    -0.236 NA
ATOM     17  C   UNL     1       2.757  -0.626   0.330  1.00  0.00    -0.018 A 
ATOM     18  C   UNL     1       2.811   1.691  -0.382  1.00  0.00    +0.038 A 
ATOM     19  C   UNL     1       3.432  -1.784   0.750  1.00  0.00    +0.009 A 
ATOM     20  C   UNL     1       3.495   0.533   0.027  1.00  0.00    -0.016 A 
ATOM     21  C   UNL     1       4.823  -1.795   0.864  1.00  0.00    +0.001 A 
ATOM     22  C   UNL     1       4.894   0.508   0.146  1.00  0.00    +0.009 A 
ATOM     23  C   UNL     1       5.553  -0.650   0.561  1.00  0.00    +0.001 A 
ENDBRANCH   8  10
ENDBRANCH   6   8
TORSDOF 2
