MODEL 1
REMARK VINA RESULT:    -6.296      0.000      0.000
REMARK INTER + INTRA:          -7.646
REMARK INTER:                  -7.585
REMARK INTRA:                  -0.061
REMARK UNBOUND:                -0.061
REMARK SMILES NCCc1ccc(O)c(O)c1
REMARK SMILES IDX 3 1 2 2 1 3 4 6 5 7 11 8 6 9 9 10 7 11 10 12 8 14
REMARK H PARENT 1 4 1 5 10 13 8 15
ROOT
ATOM      1  C   UNL     1      10.793   6.647  -6.980  1.00  0.00    +0.050 C 
ENDROOT
BRANCH   1   2
ATOM      2  C   UNL     1       9.489   7.055  -7.674  1.00  0.00    +0.082 C 
BRANCH   2   3
ATOM      3  N   UNL     1       8.698   5.883  -8.044  1.00  0.00    -0.330 NA
ATOM      4  H   UNL     1       8.701   5.209  -7.279  1.00  0.00    +0.118 HD
ATOM      5  H   UNL     1       7.726   6.162  -8.174  1.00  0.00    +0.118 HD
ENDBRANCH   2   3
ENDBRANCH   1   2
BRANCH   1   6
ATOM      6  C   UNL     1      11.067   7.498  -5.762  1.00  0.00    -0.043 A 
ATOM      7  C   UNL     1      11.563   6.908  -4.586  1.00  0.00    +0.008 A 
ATOM      8  C   UNL     1      10.856   8.887  -5.801  1.00  0.00    +0.054 A 
ATOM      9  C   UNL     1      11.838   7.688  -3.461  1.00  0.00    +0.050 A 
ATOM     10  C   UNL     1      11.132   9.654  -4.674  1.00  0.00    +0.157 A 
ATOM     11  C   UNL     1      11.620   9.055  -3.516  1.00  0.00    +0.157 A 
BRANCH  10  12
ATOM     12  O   UNL     1      10.940  11.008  -4.656  1.00  0.00    -0.504 OA
ATOM     13  H   UNL     1      11.803  11.435  -4.797  1.00  0.00    +0.293 HD
ENDBRANCH  10  12
BRANCH  11  14
ATOM     14  O   UNL     1      11.890   9.818  -2.415  1.00  0.00    -0.504 OA
ATOM     15  H   UNL     1      11.684  10.731  -2.698  1.00  0.00    +0.293 HD
ENDBRANCH  11  14
ENDBRANCH   1   6
TORSDOF 5
ENDMDL
MODEL 2
REMARK VINA RESULT:    -6.221      1.122      2.155
REMARK INTER + INTRA:          -7.555
REMARK INTER:                  -7.505
REMARK INTRA:                  -0.050
REMARK UNBOUND:                -0.061
REMARK SMILES NCCc1ccc(O)c(O)c1
REMARK SMILES IDX 3 1 2 2 1 3 4 6 5 7 11 8 6 9 9 10 7 11 10 12 8 14
REMARK H PARENT 1 4 1 5 10 13 8 15
ROOT
ATOM      1  C   UNL     1      10.622   7.157  -6.976  1.00  0.00    +0.050 C 
ENDROOT
BRANCH   1   2
ATOM      2  C   UNL     1       9.131   6.804  -6.981  1.00  0.00    +0.082 C 
BRANCH   2   3
ATOM      3  N   UNL     1       8.784   5.992  -8.146  1.00  0.00    -0.330 NA
ATOM      4  H   UNL     1       8.237   5.183  -7.853  1.00  0.00    +0.118 HD
ATOM      5  H   UNL     1       8.181   6.534  -8.765  1.00  0.00    +0.118 HD
ENDBRANCH   2   3
ENDBRANCH   1   2
BRANCH   1   6
ATOM      6  C   UNL     1      11.055   7.731  -5.647  1.00  0.00    -0.043 A 
ATOM      7  C   UNL     1      11.099   9.124  -5.461  1.00  0.00    +0.008 A 
ATOM      8  C   UNL     1      11.390   6.882  -4.579  1.00  0.00    +0.054 A 
ATOM      9  C   UNL     1      11.480   9.665  -4.232  1.00  0.00    +0.050 A 
ATOM     10  C   UNL     1      11.769   7.432  -3.359  1.00  0.00    +0.157 A 
ATOM     11  C   UNL     1      11.811   8.813  -3.190  1.00  0.00    +0.157 A 
BRANCH  10  12
ATOM     12  O   UNL     1      12.109   6.651  -2.288  1.00  0.00    -0.504 OA
ATOM     13  H   UNL     1      11.371   6.041  -2.115  1.00  0.00    +0.293 HD
ENDBRANCH  10  12
BRANCH  11  14
ATOM     14  O   UNL     1      12.182   9.343  -1.987  1.00  0.00    -0.504 OA
ATOM     15  H   UNL     1      11.695  10.189  -1.936  1.00  0.00    +0.293 HD
ENDBRANCH  11  14
ENDBRANCH   1   6
TORSDOF 5
ENDMDL
MODEL 3
REMARK VINA RESULT:    -5.980      3.531      4.693
REMARK INTER + INTRA:          -7.265
REMARK INTER:                  -7.180
REMARK INTRA:                  -0.085
REMARK UNBOUND:                -0.061
REMARK SMILES NCCc1ccc(O)c(O)c1
REMARK SMILES IDX 3 1 2 2 1 3 4 6 5 7 11 8 6 9 9 10 7 11 10 12 8 14
REMARK H PARENT 1 4 1 5 10 13 8 15
ROOT
ATOM      1  C   UNL     1      11.854   7.591  -3.845  1.00  0.00    +0.050 C 
ENDROOT
BRANCH   1   2
ATOM      2  C   UNL     1      12.704   8.752  -3.320  1.00  0.00    +0.082 C 
BRANCH   2   3
ATOM      3  N   UNL     1      11.934   9.602  -2.413  1.00  0.00    -0.330 NA
ATOM      4  H   UNL     1      12.148   9.358  -1.446  1.00  0.00    +0.118 HD
ATOM      5  H   UNL     1      12.227  10.571  -2.532  1.00  0.00    +0.118 HD
ENDBRANCH   2   3
ENDBRANCH   1   2
BRANCH   1   6
ATOM      6  C   UNL     1      11.289   7.887  -5.215  1.00  0.00    -0.043 A 
ATOM      7  C   UNL     1      11.773   8.980  -5.956  1.00  0.00    +0.008 A 
ATOM      8  C   UNL     1      10.299   7.061  -5.772  1.00  0.00    +0.054 A 
ATOM      9  C   UNL     1      11.272   9.253  -7.230  1.00  0.00    +0.050 A 
ATOM     10  C   UNL     1       9.807   7.342  -7.042  1.00  0.00    +0.157 A 
ATOM     11  C   UNL     1      10.293   8.429  -7.763  1.00  0.00    +0.157 A 
BRANCH  10  12
ATOM     12  O   UNL     1       8.840   6.572  -7.630  1.00  0.00    -0.504 OA
ATOM     13  H   UNL     1       8.696   5.791  -7.069  1.00  0.00    +0.293 HD
ENDBRANCH  10  12
BRANCH  11  14
ATOM     14  O   UNL     1       9.804   8.695  -9.010  1.00  0.00    -0.504 OA
ATOM     15  H   UNL     1      10.159   9.581  -9.225  1.00  0.00    +0.293 HD
ENDBRANCH  11  14
ENDBRANCH   1   6
TORSDOF 5
ENDMDL
MODEL 4
REMARK VINA RESULT:    -5.873      1.939      2.478
REMARK INTER + INTRA:          -7.136
REMARK INTER:                  -7.046
REMARK INTRA:                  -0.090
REMARK UNBOUND:                -0.061
REMARK SMILES NCCc1ccc(O)c(O)c1
REMARK SMILES IDX 3 1 2 2 1 3 4 6 5 7 11 8 6 9 9 10 7 11 10 12 8 14
REMARK H PARENT 1 4 1 5 10 13 8 15
ROOT
ATOM      1  C   UNL     1      11.195   9.508  -7.004  1.00  0.00    +0.050 C 
ENDROOT
BRANCH   1   2
ATOM      2  C   UNL     1      11.250   8.507  -8.163  1.00  0.00    +0.082 C 
BRANCH   2   3
ATOM      3  N   UNL     1      12.583   8.464  -8.761  1.00  0.00    -0.330 NA
ATOM      4  H   UNL     1      12.646   9.149  -9.515  1.00  0.00    +0.118 HD
ATOM      5  H   UNL     1      13.272   8.745  -8.064  1.00  0.00    +0.118 HD
ENDBRANCH   2   3
ENDBRANCH   1   2
BRANCH   1   6
ATOM      6  C   UNL     1      11.353   8.822  -5.667  1.00  0.00    -0.043 A 
ATOM      7  C   UNL     1      11.214   7.426  -5.569  1.00  0.00    +0.008 A 
ATOM      8  C   UNL     1      11.665   9.566  -4.517  1.00  0.00    +0.054 A 
ATOM      9  C   UNL     1      11.375   6.780  -4.342  1.00  0.00    +0.050 A 
ATOM     10  C   UNL     1      11.823   8.913  -3.299  1.00  0.00    +0.157 A 
ATOM     11  C   UNL     1      11.679   7.530  -3.217  1.00  0.00    +0.157 A 
BRANCH  10  12
ATOM     12  O   UNL     1      12.123   9.589  -2.149  1.00  0.00    -0.504 OA
ATOM     13  H   UNL     1      11.670  10.449  -2.179  1.00  0.00    +0.293 HD
ENDBRANCH  10  12
BRANCH  11  14
ATOM     14  O   UNL     1      11.839   6.898  -2.017  1.00  0.00    -0.504 OA
ATOM     15  H   UNL     1      11.146   7.286  -1.446  1.00  0.00    +0.293 HD
ENDBRANCH  11  14
ENDBRANCH   1   6
TORSDOF 5
ENDMDL
MODEL 5
REMARK VINA RESULT:    -5.678      3.644      5.100
REMARK INTER + INTRA:          -6.901
REMARK INTER:                  -6.843
REMARK INTRA:                  -0.059
REMARK UNBOUND:                -0.061
REMARK SMILES NCCc1ccc(O)c(O)c1
REMARK SMILES IDX 3 1 2 2 1 3 4 6 5 7 11 8 6 9 9 10 7 11 10 12 8 14
REMARK H PARENT 1 4 1 5 10 13 8 15
ROOT
ATOM      1  C   UNL     1      12.164   9.552  -6.010  1.00  0.00    +0.050 C 
ENDROOT
BRANCH   1   2
ATOM      2  C   UNL     1      11.520   9.428  -4.625  1.00  0.00    +0.082 C 
BRANCH   2   3
ATOM      3  N   UNL     1      10.616  10.546  -4.361  1.00  0.00    -0.330 NA
ATOM      4  H   UNL     1       9.766  10.441  -4.915  1.00  0.00    +0.118 HD
ATOM      5  H   UNL     1      10.324  10.517  -3.385  1.00  0.00    +0.118 HD
ENDBRANCH   2   3
ENDBRANCH   1   2
BRANCH   1   6
ATOM      6  C   UNL     1      11.461   8.690  -7.032  1.00  0.00    -0.043 A 
ATOM      7  C   UNL     1      11.922   8.652  -8.360  1.00  0.00    +0.008 A 
ATOM      8  C   UNL     1      10.360   7.899  -6.662  1.00  0.00    +0.054 A 
ATOM      9  C   UNL     1      11.291   7.845  -9.309  1.00  0.00    +0.050 A 
ATOM     10  C   UNL     1       9.739   7.099  -7.615  1.00  0.00    +0.157 A 
ATOM     11  C   UNL     1      10.204   7.074  -8.927  1.00  0.00    +0.157 A 
BRANCH  10  12
ATOM     12  O   UNL     1       8.662   6.313  -7.309  1.00  0.00    -0.504 OA
ATOM     13  H   UNL     1       8.267   6.006  -8.143  1.00  0.00    +0.293 HD
ENDBRANCH  10  12
BRANCH  11  14
ATOM     14  O   UNL     1       9.588   6.284  -9.855  1.00  0.00    -0.504 OA
ATOM     15  H   UNL     1       8.715   6.086  -9.461  1.00  0.00    +0.293 HD
ENDBRANCH  11  14
ENDBRANCH   1   6
TORSDOF 5
ENDMDL
MODEL 6
REMARK VINA RESULT:    -5.575      3.575      4.649
REMARK INTER + INTRA:          -6.777
REMARK INTER:                  -6.697
REMARK INTRA:                  -0.080
REMARK UNBOUND:                -0.061
REMARK SMILES NCCc1ccc(O)c(O)c1
REMARK SMILES IDX 3 1 2 2 1 3 4 6 5 7 11 8 6 9 9 10 7 11 10 12 8 14
REMARK H PARENT 1 4 1 5 10 13 8 15
ROOT
ATOM      1  C   UNL     1      12.582   9.222  -4.430  1.00  0.00    +0.050 C 
ENDROOT
BRANCH   1   2
ATOM      2  C   UNL     1      12.283   8.416  -3.162  1.00  0.00    +0.082 C 
BRANCH   2   3
ATOM      3  N   UNL     1      12.148   9.292  -1.999  1.00  0.00    -0.330 NA
ATOM      4  H   UNL     1      13.020   9.799  -1.846  1.00  0.00    +0.118 HD
ATOM      5  H   UNL     1      11.439   9.999  -2.193  1.00  0.00    +0.118 HD
ENDBRANCH   2   3
ENDBRANCH   1   2
BRANCH   1   6
ATOM      6  C   UNL     1      11.884   8.641  -5.638  1.00  0.00    -0.043 A 
ATOM      7  C   UNL     1      11.052   7.516  -5.498  1.00  0.00    +0.008 A 
ATOM      8  C   UNL     1      12.038   9.232  -6.903  1.00  0.00    +0.054 A 
ATOM      9  C   UNL     1      10.387   6.982  -6.604  1.00  0.00    +0.050 A 
ATOM     10  C   UNL     1      11.372   8.691  -7.998  1.00  0.00    +0.157 A 
ATOM     11  C   UNL     1      10.553   7.576  -7.845  1.00  0.00    +0.157 A 
BRANCH  10  12
ATOM     12  O   UNL     1      11.489   9.225  -9.252  1.00  0.00    -0.504 OA
ATOM     13  H   UNL     1      10.859   9.963  -9.325  1.00  0.00    +0.293 HD
ENDBRANCH  10  12
BRANCH  11  14
ATOM     14  O   UNL     1       9.902   7.054  -8.926  1.00  0.00    -0.504 OA
ATOM     15  H   UNL     1      10.569   6.484  -9.358  1.00  0.00    +0.293 HD
ENDBRANCH  11  14
ENDBRANCH   1   6
TORSDOF 5
ENDMDL
MODEL 7
REMARK VINA RESULT:    -5.563      2.370      2.672
REMARK INTER + INTRA:          -6.763
REMARK INTER:                  -6.673
REMARK INTRA:                  -0.090
REMARK UNBOUND:                -0.061
REMARK SMILES NCCc1ccc(O)c(O)c1
REMARK SMILES IDX 3 1 2 2 1 3 4 6 5 7 11 8 6 9 9 10 7 11 10 12 8 14
REMARK H PARENT 1 4 1 5 10 13 8 15
ROOT
ATOM      1  C   UNL     1      11.100   9.014  -9.104  1.00  0.00    +0.050 C 
ENDROOT
BRANCH   1   2
ATOM      2  C   UNL     1      11.658   7.852  -9.932  1.00  0.00    +0.082 C 
BRANCH   2   3
ATOM      3  N   UNL     1      13.042   8.102 -10.328  1.00  0.00    -0.330 NA
ATOM      4  H   UNL     1      13.265   7.565 -11.165  1.00  0.00    +0.118 HD
ATOM      5  H   UNL     1      13.145   9.084 -10.584  1.00  0.00    +0.118 HD
ENDBRANCH   2   3
ENDBRANCH   1   2
BRANCH   1   6
ATOM      6  C   UNL     1      11.130   8.710  -7.624  1.00  0.00    -0.043 A 
ATOM      7  C   UNL     1      11.382   7.400  -7.178  1.00  0.00    +0.008 A 
ATOM      8  C   UNL     1      10.934   9.733  -6.682  1.00  0.00    +0.054 A 
ATOM      9  C   UNL     1      11.431   7.111  -5.813  1.00  0.00    +0.050 A 
ATOM     10  C   UNL     1      10.983   9.434  -5.325  1.00  0.00    +0.157 A 
ATOM     11  C   UNL     1      11.232   8.132  -4.898  1.00  0.00    +0.157 A 
BRANCH  10  12
ATOM     12  O   UNL     1      10.795  10.391  -4.366  1.00  0.00    -0.504 OA
ATOM     13  H   UNL     1      10.170  11.049  -4.716  1.00  0.00    +0.293 HD
ENDBRANCH  10  12
BRANCH  11  14
ATOM     14  O   UNL     1      11.280   7.850  -3.562  1.00  0.00    -0.504 OA
ATOM     15  H   UNL     1      10.342   7.779  -3.296  1.00  0.00    +0.293 HD
ENDBRANCH  11  14
ENDBRANCH   1   6
TORSDOF 5
ENDMDL
MODEL 8
REMARK VINA RESULT:    -5.466      2.034      3.151
REMARK INTER + INTRA:          -6.646
REMARK INTER:                  -6.565
REMARK INTRA:                  -0.080
REMARK UNBOUND:                -0.061
REMARK SMILES NCCc1ccc(O)c(O)c1
REMARK SMILES IDX 3 1 2 2 1 3 4 6 5 7 11 8 6 9 9 10 7 11 10 12 8 14
REMARK H PARENT 1 4 1 5 10 13 8 15
ROOT
ATOM      1  C   UNL     1       9.516   5.756  -8.489  1.00  0.00    +0.050 C 
ENDROOT
BRANCH   1   2
ATOM      2  C   UNL     1       9.446   5.868 -10.016  1.00  0.00    +0.082 C 
BRANCH   2   3
ATOM      3  N   UNL     1       8.111   5.533 -10.509  1.00  0.00    -0.330 NA
ATOM      4  H   UNL     1       7.979   5.926 -11.441  1.00  0.00    +0.118 HD
ATOM      5  H   UNL     1       8.037   4.522 -10.614  1.00  0.00    +0.118 HD
ENDBRANCH   2   3
ENDBRANCH   1   2
BRANCH   1   6
ATOM      6  C   UNL     1      10.373   6.846  -7.889  1.00  0.00    -0.043 A 
ATOM      7  C   UNL     1      11.003   7.788  -8.722  1.00  0.00    +0.008 A 
ATOM      8  C   UNL     1      10.526   6.946  -6.496  1.00  0.00    +0.054 A 
ATOM      9  C   UNL     1      11.781   8.811  -8.177  1.00  0.00    +0.050 A 
ATOM     10  C   UNL     1      11.305   7.968  -5.963  1.00  0.00    +0.157 A 
ATOM     11  C   UNL     1      11.925   8.892  -6.801  1.00  0.00    +0.157 A 
BRANCH  10  12
ATOM     12  O   UNL     1      11.490   8.109  -4.615  1.00  0.00    -0.504 OA
ATOM     13  H   UNL     1      11.166   7.301  -4.181  1.00  0.00    +0.293 HD
ENDBRANCH  10  12
BRANCH  11  14
ATOM     14  O   UNL     1      12.686   9.893  -6.267  1.00  0.00    -0.504 OA
ATOM     15  H   UNL     1      12.891  10.472  -7.028  1.00  0.00    +0.293 HD
ENDBRANCH  11  14
ENDBRANCH   1   6
TORSDOF 5
ENDMDL
MODEL 9
REMARK VINA RESULT:    -5.459      2.408      2.999
REMARK INTER + INTRA:          -6.637
REMARK INTER:                  -6.539
REMARK INTRA:                  -0.098
REMARK UNBOUND:                -0.061
REMARK SMILES NCCc1ccc(O)c(O)c1
REMARK SMILES IDX 3 1 2 2 1 3 4 6 5 7 11 8 6 9 9 10 7 11 10 12 8 14
REMARK H PARENT 1 4 1 5 10 13 8 15
ROOT
ATOM      1  C   UNL     1      11.042   7.567  -8.745  1.00  0.00    +0.050 C 
ENDROOT
BRANCH   1   2
ATOM      2  C   UNL     1      11.811   8.451  -9.732  1.00  0.00    +0.082 C 
BRANCH   2   3
ATOM      3  N   UNL     1      13.231   8.107  -9.755  1.00  0.00    -0.330 NA
ATOM      4  H   UNL     1      13.518   7.762  -8.839  1.00  0.00    +0.118 HD
ATOM      5  H   UNL     1      13.379   7.337 -10.407  1.00  0.00    +0.118 HD
ENDBRANCH   2   3
ENDBRANCH   1   2
BRANCH   1   6
ATOM      6  C   UNL     1      11.185   8.061  -7.325  1.00  0.00    -0.043 A 
ATOM      7  C   UNL     1      11.217   9.441  -7.058  1.00  0.00    +0.008 A 
ATOM      8  C   UNL     1      11.261   7.151  -6.257  1.00  0.00    +0.054 A 
ATOM      9  C   UNL     1      11.330   9.910  -5.747  1.00  0.00    +0.050 A 
ATOM     10  C   UNL     1      11.375   7.628  -4.956  1.00  0.00    +0.157 A 
ATOM     11  C   UNL     1      11.407   8.998  -4.707  1.00  0.00    +0.157 A 
BRANCH  10  12
ATOM     12  O   UNL     1      11.456   6.786  -3.881  1.00  0.00    -0.504 OA
ATOM     13  H   UNL     1      11.026   5.947  -4.123  1.00  0.00    +0.293 HD
ENDBRANCH  10  12
BRANCH  11  14
ATOM     14  O   UNL     1      11.517   9.456  -3.425  1.00  0.00    -0.504 OA
ATOM     15  H   UNL     1      10.593   9.517  -3.111  1.00  0.00    +0.293 HD
ENDBRANCH  11  14
ENDBRANCH   1   6
TORSDOF 5
ENDMDL
