MODEL 1
REMARK VINA RESULT:    -6.291      0.000      0.000
REMARK INTER + INTRA:          -7.644
REMARK INTER:                  -7.579
REMARK INTRA:                  -0.065
REMARK UNBOUND:                -0.065
REMARK SMILES NCCc1ccc(O)c(O)c1
REMARK SMILES IDX 3 1 2 2 1 3 4 6 5 7 11 8 6 9 9 10 7 11 10 12 8 14
REMARK H PARENT 1 4 1 5 10 13 8 15
ROOT
ATOM      1  C   UNL     1      10.831   6.606  -6.974  1.00  0.00    +0.050 C 
ENDROOT
BRANCH   1   2
ATOM      2  C   UNL     1       9.584   7.065  -7.737  1.00  0.00    +0.082 C 
BRANCH   2   3
ATOM      3  N   UNL     1       8.698   5.939  -8.027  1.00  0.00    -0.330 NA
ATOM      4  H   UNL     1       8.170   6.125  -8.880  1.00  0.00    +0.118 HD
ATOM      5  H   UNL     1       9.261   5.110  -8.217  1.00  0.00    +0.118 HD
ENDBRANCH   2   3
ENDBRANCH   1   2
BRANCH   1   6
ATOM      6  C   UNL     1      11.095   7.472  -5.765  1.00  0.00    -0.043 A 
ATOM      7  C   UNL     1      11.593   6.899  -4.581  1.00  0.00    +0.008 A 
ATOM      8  C   UNL     1      10.872   8.859  -5.818  1.00  0.00    +0.054 A 
ATOM      9  C   UNL     1      11.859   7.693  -3.464  1.00  0.00    +0.050 A 
ATOM     10  C   UNL     1      11.139   9.640  -4.699  1.00  0.00    +0.157 A 
ATOM     11  C   UNL     1      11.629   9.058  -3.533  1.00  0.00    +0.157 A 
BRANCH  10  12
ATOM     12  O   UNL     1      10.936  10.993  -4.696  1.00  0.00    -0.504 OA
ATOM     13  H   UNL     1      11.057  11.313  -3.786  1.00  0.00    +0.293 HD
ENDBRANCH  10  12
BRANCH  11  14
ATOM     14  O   UNL     1      11.890   9.835  -2.440  1.00  0.00    -0.504 OA
ATOM     15  H   UNL     1      12.396   9.249  -1.843  1.00  0.00    +0.293 HD
ENDBRANCH  11  14
ENDBRANCH   1   6
TORSDOF 5
ENDMDL
MODEL 2
REMARK VINA RESULT:    -6.238      1.057      2.122
REMARK INTER + INTRA:          -7.579
REMARK INTER:                  -7.529
REMARK INTRA:                  -0.050
REMARK UNBOUND:                -0.065
REMARK SMILES NCCc1ccc(O)c(O)c1
REMARK SMILES IDX 3 1 2 2 1 3 4 6 5 7 11 8 6 9 9 10 7 11 10 12 8 14
REMARK H PARENT 1 4 1 5 10 13 8 15
ROOT
ATOM      1  C   UNL     1      10.694   7.036  -6.939  1.00  0.00    +0.050 C 
ENDROOT
BRANCH   1   2
ATOM      2  C   UNL     1       9.171   6.944  -7.078  1.00  0.00    +0.082 C 
BRANCH   2   3
ATOM      3  N   UNL     1       8.792   5.992  -8.120  1.00  0.00    -0.330 NA
ATOM      4  H   UNL     1       7.777   5.970  -8.216  1.00  0.00    +0.118 HD
ATOM      5  H   UNL     1       9.155   6.314  -9.016  1.00  0.00    +0.118 HD
ENDBRANCH   2   3
ENDBRANCH   1   2
BRANCH   1   6
ATOM      6  C   UNL     1      11.097   7.697  -5.642  1.00  0.00    -0.043 A 
ATOM      7  C   UNL     1      11.129   9.099  -5.544  1.00  0.00    +0.008 A 
ATOM      8  C   UNL     1      11.418   6.920  -4.515  1.00  0.00    +0.054 A 
ATOM      9  C   UNL     1      11.482   9.721  -4.345  1.00  0.00    +0.050 A 
ATOM     10  C   UNL     1      11.769   7.550  -3.326  1.00  0.00    +0.157 A 
ATOM     11  C   UNL     1      11.798   8.939  -3.245  1.00  0.00    +0.157 A 
BRANCH  10  12
ATOM     12  O   UNL     1      12.094   6.841  -2.201  1.00  0.00    -0.504 OA
ATOM     13  H   UNL     1      12.167   5.903  -2.448  1.00  0.00    +0.293 HD
ENDBRANCH  10  12
BRANCH  11  14
ATOM     14  O   UNL     1      12.143   9.547  -2.071  1.00  0.00    -0.504 OA
ATOM     15  H   UNL     1      11.643  10.388  -2.079  1.00  0.00    +0.293 HD
ENDBRANCH  11  14
ENDBRANCH   1   6
TORSDOF 5
ENDMDL
MODEL 3
REMARK VINA RESULT:    -5.977      3.528      4.696
REMARK INTER + INTRA:          -7.264
REMARK INTER:                  -7.172
REMARK INTRA:                  -0.092
REMARK UNBOUND:                -0.065
REMARK SMILES NCCc1ccc(O)c(O)c1
REMARK SMILES IDX 3 1 2 2 1 3 4 6 5 7 11 8 6 9 9 10 7 11 10 12 8 14
REMARK H PARENT 1 4 1 5 10 13 8 15
ROOT
ATOM      1  C   UNL     1      11.850   7.655  -3.876  1.00  0.00    +0.050 C 
ENDROOT
BRANCH   1   2
ATOM      2  C   UNL     1      12.680   8.828  -3.344  1.00  0.00    +0.082 C 
BRANCH   2   3
ATOM      3  N   UNL     1      11.912   9.629  -2.392  1.00  0.00    -0.330 NA
ATOM      4  H   UNL     1      11.217  10.185  -2.889  1.00  0.00    +0.118 HD
ATOM      5  H   UNL     1      11.390   9.007  -1.775  1.00  0.00    +0.118 HD
ENDBRANCH   2   3
ENDBRANCH   1   2
BRANCH   1   6
ATOM      6  C   UNL     1      11.305   7.938  -5.256  1.00  0.00    -0.043 A 
ATOM      7  C   UNL     1      11.775   9.043  -5.987  1.00  0.00    +0.008 A 
ATOM      8  C   UNL     1      10.346   7.088  -5.832  1.00  0.00    +0.054 A 
ATOM      9  C   UNL     1      11.293   9.303  -7.272  1.00  0.00    +0.050 A 
ATOM     10  C   UNL     1       9.871   7.357  -7.111  1.00  0.00    +0.157 A 
ATOM     11  C   UNL     1      10.344   8.456  -7.823  1.00  0.00    +0.157 A 
BRANCH  10  12
ATOM     12  O   UNL     1       8.935   6.564  -7.717  1.00  0.00    -0.504 OA
ATOM     13  H   UNL     1       9.380   6.057  -8.419  1.00  0.00    +0.293 HD
ENDBRANCH  10  12
BRANCH  11  14
ATOM     14  O   UNL     1       9.873   8.710  -9.079  1.00  0.00    -0.504 OA
ATOM     15  H   UNL     1       8.959   8.361  -9.069  1.00  0.00    +0.293 HD
ENDBRANCH  11  14
ENDBRANCH   1   6
TORSDOF 5
ENDMDL
MODEL 4
REMARK VINA RESULT:    -5.901      1.821      2.068
REMARK INTER + INTRA:          -7.174
REMARK INTER:                  -7.084
REMARK INTRA:                  -0.089
REMARK UNBOUND:                -0.065
REMARK SMILES NCCc1ccc(O)c(O)c1
REMARK SMILES IDX 3 1 2 2 1 3 4 6 5 7 11 8 6 9 9 10 7 11 10 12 8 14
REMARK H PARENT 1 4 1 5 10 13 8 15
ROOT
ATOM      1  C   UNL     1      10.718   8.645  -7.220  1.00  0.00    +0.050 C 
ENDROOT
BRANCH   1   2
ATOM      2  C   UNL     1      11.536   7.721  -8.127  1.00  0.00    +0.082 C 
BRANCH   2   3
ATOM      3  N   UNL     1      12.660   8.434  -8.731  1.00  0.00    -0.330 NA
ATOM      4  H   UNL     1      12.885   9.259  -8.176  1.00  0.00    +0.118 HD
ATOM      5  H   UNL     1      13.488   7.839  -8.705  1.00  0.00    +0.118 HD
ENDBRANCH   2   3
ENDBRANCH   1   2
BRANCH   1   6
ATOM      6  C   UNL     1      11.065   8.447  -5.763  1.00  0.00    -0.043 A 
ATOM      7  C   UNL     1      11.206   7.149  -5.241  1.00  0.00    +0.008 A 
ATOM      8  C   UNL     1      11.276   9.554  -4.923  1.00  0.00    +0.054 A 
ATOM      9  C   UNL     1      11.545   6.953  -3.901  1.00  0.00    +0.050 A 
ATOM     10  C   UNL     1      11.612   9.348  -3.589  1.00  0.00    +0.157 A 
ATOM     11  C   UNL     1      11.746   8.057  -3.086  1.00  0.00    +0.157 A 
BRANCH  10  12
ATOM     12  O   UNL     1      11.824  10.389  -2.728  1.00  0.00    -0.504 OA
ATOM     13  H   UNL     1      11.702  11.218  -3.223  1.00  0.00    +0.293 HD
ENDBRANCH  10  12
BRANCH  11  14
ATOM     14  O   UNL     1      12.078   7.866  -1.775  1.00  0.00    -0.504 OA
ATOM     15  H   UNL     1      11.343   7.331  -1.415  1.00  0.00    +0.293 HD
ENDBRANCH  11  14
ENDBRANCH   1   6
TORSDOF 5
ENDMDL
MODEL 5
REMARK VINA RESULT:    -5.807      3.639      4.973
REMARK INTER + INTRA:          -7.061
REMARK INTER:                  -6.953
REMARK INTRA:                  -0.108
REMARK UNBOUND:                -0.065
REMARK SMILES NCCc1ccc(O)c(O)c1
REMARK SMILES IDX 3 1 2 2 1 3 4 6 5 7 11 8 6 9 9 10 7 11 10 12 8 14
REMARK H PARENT 1 4 1 5 10 13 8 15
ROOT
ATOM      1  C   UNL     1      11.499   8.050  -4.735  1.00  0.00    +0.050 C 
ENDROOT
BRANCH   1   2
ATOM      2  C   UNL     1      11.860   9.524  -4.522  1.00  0.00    +0.082 C 
BRANCH   2   3
ATOM      3  N   UNL     1      10.661  10.343  -4.354  1.00  0.00    -0.330 NA
ATOM      4  H   UNL     1      10.207  10.113  -3.471  1.00  0.00    +0.118 HD
ATOM      5  H   UNL     1      10.932  11.324  -4.287  1.00  0.00    +0.118 HD
ENDBRANCH   2   3
ENDBRANCH   1   2
BRANCH   1   6
ATOM      6  C   UNL     1      11.073   7.780  -6.159  1.00  0.00    -0.043 A 
ATOM      7  C   UNL     1      11.806   8.323  -7.230  1.00  0.00    +0.008 A 
ATOM      8  C   UNL     1       9.960   6.965  -6.428  1.00  0.00    +0.054 A 
ATOM      9  C   UNL     1      11.432   8.065  -8.550  1.00  0.00    +0.050 A 
ATOM     10  C   UNL     1       9.597   6.715  -7.747  1.00  0.00    +0.157 A 
ATOM     11  C   UNL     1      10.330   7.262  -8.797  1.00  0.00    +0.157 A 
BRANCH  10  12
ATOM     12  O   UNL     1       8.521   5.933  -8.065  1.00  0.00    -0.504 OA
ATOM     13  H   UNL     1       7.785   6.182  -7.480  1.00  0.00    +0.293 HD
ENDBRANCH  10  12
BRANCH  11  14
ATOM     14  O   UNL     1       9.965   7.008 -10.089  1.00  0.00    -0.504 OA
ATOM     15  H   UNL     1       9.040   6.700 -10.022  1.00  0.00    +0.293 HD
ENDBRANCH  11  14
ENDBRANCH   1   6
TORSDOF 5
ENDMDL
MODEL 6
REMARK VINA RESULT:    -5.480      2.054      3.185
REMARK INTER + INTRA:          -6.666
REMARK INTER:                  -6.578
REMARK INTRA:                  -0.088
REMARK UNBOUND:                -0.065
REMARK SMILES NCCc1ccc(O)c(O)c1
REMARK SMILES IDX 3 1 2 2 1 3 4 6 5 7 11 8 6 9 9 10 7 11 10 12 8 14
REMARK H PARENT 1 4 1 5 10 13 8 15
ROOT
ATOM      1  C   UNL     1       9.391   5.808  -8.494  1.00  0.00    +0.050 C 
ENDROOT
BRANCH   1   2
ATOM      2  C   UNL     1       9.428   5.805 -10.026  1.00  0.00    +0.082 C 
BRANCH   2   3
ATOM      3  N   UNL     1       8.079   5.778 -10.586  1.00  0.00    -0.330 NA
ATOM      4  H   UNL     1       7.673   4.850 -10.465  1.00  0.00    +0.118 HD
ATOM      5  H   UNL     1       7.485   6.419 -10.061  1.00  0.00    +0.118 HD
ENDBRANCH   2   3
ENDBRANCH   1   2
BRANCH   1   6
ATOM      6  C   UNL     1      10.277   6.887  -7.917  1.00  0.00    -0.043 A 
ATOM      7  C   UNL     1      10.910   7.811  -8.768  1.00  0.00    +0.008 A 
ATOM      8  C   UNL     1      10.456   6.996  -6.527  1.00  0.00    +0.054 A 
ATOM      9  C   UNL     1      11.716   8.824  -8.245  1.00  0.00    +0.050 A 
ATOM     10  C   UNL     1      11.262   8.008  -6.017  1.00  0.00    +0.157 A 
ATOM     11  C   UNL     1      11.884   8.913  -6.872  1.00  0.00    +0.157 A 
BRANCH  10  12
ATOM     12  O   UNL     1      11.473   8.156  -4.673  1.00  0.00    -0.504 OA
ATOM     13  H   UNL     1      12.410   7.970  -4.494  1.00  0.00    +0.293 HD
ENDBRANCH  10  12
BRANCH  11  14
ATOM     14  O   UNL     1      12.672   9.905  -6.360  1.00  0.00    -0.504 OA
ATOM     15  H   UNL     1      12.242  10.732  -6.655  1.00  0.00    +0.293 HD
ENDBRANCH  11  14
ENDBRANCH   1   6
TORSDOF 5
ENDMDL
MODEL 7
REMARK VINA RESULT:    -5.438      3.533      4.933
REMARK INTER + INTRA:          -6.615
REMARK INTER:                  -6.519
REMARK INTRA:                  -0.097
REMARK UNBOUND:                -0.065
REMARK SMILES NCCc1ccc(O)c(O)c1
REMARK SMILES IDX 3 1 2 2 1 3 4 6 5 7 11 8 6 9 9 10 7 11 10 12 8 14
REMARK H PARENT 1 4 1 5 10 13 8 15
ROOT
ATOM      1  C   UNL     1      11.428   8.062  -5.083  1.00  0.00    +0.050 C 
ENDROOT
BRANCH   1   2
ATOM      2  C   UNL     1      11.829   9.520  -4.837  1.00  0.00    +0.082 C 
BRANCH   2   3
ATOM      3  N   UNL     1      10.660  10.346  -4.542  1.00  0.00    -0.330 NA
ATOM      4  H   UNL     1      10.842  10.920  -3.719  1.00  0.00    +0.118 HD
ATOM      5  H   UNL     1      10.505  10.995  -5.313  1.00  0.00    +0.118 HD
ENDBRANCH   2   3
ENDBRANCH   1   2
BRANCH   1   6
ATOM      6  C   UNL     1      11.185   7.789  -6.549  1.00  0.00    -0.043 A 
ATOM      7  C   UNL     1      10.178   6.890  -6.942  1.00  0.00    +0.008 A 
ATOM      8  C   UNL     1      11.942   8.449  -7.532  1.00  0.00    +0.054 A 
ATOM      9  C   UNL     1       9.932   6.645  -8.295  1.00  0.00    +0.050 A 
ATOM     10  C   UNL     1      11.689   8.197  -8.876  1.00  0.00    +0.157 A 
ATOM     11  C   UNL     1      10.691   7.302  -9.250  1.00  0.00    +0.157 A 
BRANCH  10  12
ATOM     12  O   UNL     1      12.399   8.809  -9.873  1.00  0.00    -0.504 OA
ATOM     13  H   UNL     1      12.454   9.758  -9.663  1.00  0.00    +0.293 HD
ENDBRANCH  10  12
BRANCH  11  14
ATOM     14  O   UNL     1      10.450   7.063 -10.573  1.00  0.00    -0.504 OA
ATOM     15  H   UNL     1      10.017   6.187 -10.585  1.00  0.00    +0.293 HD
ENDBRANCH  11  14
ENDBRANCH   1   6
TORSDOF 5
ENDMDL
MODEL 8
REMARK VINA RESULT:    -5.349      2.942      4.193
REMARK INTER + INTRA:          -6.509
REMARK INTER:                  -6.483
REMARK INTRA:                  -0.025
REMARK UNBOUND:                -0.065
REMARK SMILES NCCc1ccc(O)c(O)c1
REMARK SMILES IDX 3 1 2 2 1 3 4 6 5 7 11 8 6 9 9 10 7 11 10 12 8 14
REMARK H PARENT 1 4 1 5 10 13 8 15
ROOT
ATOM      1  C   UNL     1      11.943   7.016  -3.219  1.00  0.00    +0.050 C 
ENDROOT
BRANCH   1   2
ATOM      2  C   UNL     1      11.798   8.088  -2.134  1.00  0.00    +0.082 C 
BRANCH   2   3
ATOM      3  N   UNL     1      13.104   8.569  -1.689  1.00  0.00    -0.330 NA
ATOM      4  H   UNL     1      13.563   9.075  -2.446  1.00  0.00    +0.118 HD
ATOM      5  H   UNL     1      12.974   9.242  -0.934  1.00  0.00    +0.118 HD
ENDBRANCH   2   3
ENDBRANCH   1   2
BRANCH   1   6
ATOM      6  C   UNL     1      11.647   7.570  -4.594  1.00  0.00    -0.043 A 
ATOM      7  C   UNL     1      11.163   6.723  -5.606  1.00  0.00    +0.008 A 
ATOM      8  C   UNL     1      11.826   8.937  -4.865  1.00  0.00    +0.054 A 
ATOM      9  C   UNL     1      10.868   7.227  -6.875  1.00  0.00    +0.050 A 
ATOM     10  C   UNL     1      11.531   9.429  -6.132  1.00  0.00    +0.157 A 
ATOM     11  C   UNL     1      11.054   8.577  -7.126  1.00  0.00    +0.157 A 
BRANCH  10  12
ATOM     12  O   UNL     1      11.691  10.749  -6.451  1.00  0.00    -0.504 OA
ATOM     13  H   UNL     1      11.558  10.845  -7.410  1.00  0.00    +0.293 HD
ENDBRANCH  10  12
BRANCH  11  14
ATOM     14  O   UNL     1      10.765   9.071  -8.366  1.00  0.00    -0.504 OA
ATOM     15  H   UNL     1      10.862   8.301  -8.961  1.00  0.00    +0.293 HD
ENDBRANCH  11  14
ENDBRANCH   1   6
TORSDOF 5
ENDMDL
MODEL 9
REMARK VINA RESULT:    -5.303      1.474      1.888
REMARK INTER + INTRA:          -6.453
REMARK INTER:                  -6.381
REMARK INTRA:                  -0.073
REMARK UNBOUND:                -0.065
REMARK SMILES NCCc1ccc(O)c(O)c1
REMARK SMILES IDX 3 1 2 2 1 3 4 6 5 7 11 8 6 9 9 10 7 11 10 12 8 14
REMARK H PARENT 1 4 1 5 10 13 8 15
ROOT
ATOM      1  C   UNL     1      10.364   6.980  -8.942  1.00  0.00    +0.050 C 
ENDROOT
BRANCH   1   2
ATOM      2  C   UNL     1       9.472   5.747  -8.767  1.00  0.00    +0.082 C 
BRANCH   2   3
ATOM      3  N   UNL     1       8.529   5.616  -9.876  1.00  0.00    -0.330 NA
ATOM      4  H   UNL     1       8.287   4.634 -10.010  1.00  0.00    +0.118 HD
ATOM      5  H   UNL     1       7.660   6.092  -9.636  1.00  0.00    +0.118 HD
ENDBRANCH   2   3
ENDBRANCH   1   2
BRANCH   1   6
ATOM      6  C   UNL     1      10.820   7.532  -7.612  1.00  0.00    -0.043 A 
ATOM      7  C   UNL     1      10.674   6.766  -6.442  1.00  0.00    +0.008 A 
ATOM      8  C   UNL     1      11.417   8.802  -7.534  1.00  0.00    +0.054 A 
ATOM      9  C   UNL     1      11.108   7.259  -5.210  1.00  0.00    +0.050 A 
ATOM     10  C   UNL     1      11.845   9.284  -6.302  1.00  0.00    +0.157 A 
ATOM     11  C   UNL     1      11.691   8.514  -5.151  1.00  0.00    +0.157 A 
BRANCH  10  12
ATOM     12  O   UNL     1      12.429  10.514  -6.169  1.00  0.00    -0.504 OA
ATOM     13  H   UNL     1      13.394  10.391  -6.176  1.00  0.00    +0.293 HD
ENDBRANCH  10  12
BRANCH  11  14
ATOM     14  O   UNL     1      12.117   8.996  -3.946  1.00  0.00    -0.504 OA
ATOM     15  H   UNL     1      11.298   9.096  -3.423  1.00  0.00    +0.293 HD
ENDBRANCH  11  14
ENDBRANCH   1   6
TORSDOF 5
ENDMDL
