REMARK SMILES NCCc1ccc(O)c(O)c1
REMARK SMILES IDX 3 1 2 2 1 3 4 6 5 7 11 8 6 9 9 10 7 11 10 12 8 14
REMARK H PARENT 1 4 1 5 10 13 8 15
ROOT
ATOM      1  C   UNL     1      -1.301   0.289   1.046  1.00  0.00    +0.050 C 
ENDROOT
BRANCH   1   2
ATOM      2  C   UNL     1      -2.393   0.488  -0.010  1.00  0.00    +0.082 C 
BRANCH   2   3
ATOM      3  N   UNL     1      -3.636   0.959   0.598  1.00  0.00    -0.330 NA
ATOM      4  H   UNL     1      -3.489   1.876   1.019  1.00  0.00    +0.118 HD
ATOM      5  H   UNL     1      -4.337   1.090  -0.131  1.00  0.00    +0.118 HD
ENDBRANCH   2   3
ENDBRANCH   1   2
BRANCH   1   6
ATOM      6  C   UNL     1      -0.005  -0.180   0.427  1.00  0.00    -0.043 A 
ATOM      7  C   UNL     1       0.203  -1.548   0.177  1.00  0.00    +0.008 A 
ATOM      8  C   UNL     1       0.991   0.745   0.071  1.00  0.00    +0.054 A 
ATOM      9  C   UNL     1       1.389  -1.991  -0.412  1.00  0.00    +0.050 A 
ATOM     10  C   UNL     1       2.169   0.293  -0.514  1.00  0.00    +0.157 A 
ATOM     11  C   UNL     1       2.362  -1.065  -0.753  1.00  0.00    +0.157 A 
BRANCH  10  12
ATOM     12  O   UNL     1       3.172   1.150  -0.876  1.00  0.00    -0.504 OA
ATOM     13  H   UNL     1       2.901   2.051  -0.629  1.00  0.00    +0.293 HD
ENDBRANCH  10  12
BRANCH  11  14
ATOM     14  O   UNL     1       3.522  -1.498  -1.330  1.00  0.00    -0.504 OA
ATOM     15  H   UNL     1       4.040  -0.681  -1.473  1.00  0.00    +0.293 HD
ENDBRANCH  11  14
ENDBRANCH   1   6
TORSDOF 5
